
     Program PWSCF v.6.7MaX starts on  1Jul2026 at  3:35:42 

     This program is part of the open-source Quantum ESPRESSO suite
     for quantum simulation of materials; please cite
         "P. Giannozzi et al., J. Phys.:Condens. Matter 21 395502 (2009);
         "P. Giannozzi et al., J. Phys.:Condens. Matter 29 465901 (2017);
          URL http://www.quantum-espresso.org", 
     in publications or presentations arising from this work. More details at
     http://www.quantum-espresso.org/quote

     Parallel version (MPI), running on     8 processors

     MPI processes distributed on     1 nodes
     K-points division:     npool     =       2
     R & G space division:  proc/nbgrp/npool/nimage =       4
     Waiting for input...
     Reading input from standard input

     Current dimensions of program PWSCF are:
     Max number of different atomic species (ntypx) = 10
     Max number of k-points (npk) =  40000
     Max angular momentum in pseudopotentials (lmaxx) =  3
     file O.pbe-n-kjpaw_psl.0.1.UPF: wavefunction(s)  2P renormalized

     Subspace diagonalization in iterative solution of the eigenvalue problem:
     one sub-group per band group will be used
     scalapack distributed-memory algorithm (size of sub-group:  2*  2 procs)

     Message from routine setup:
     using ibrav=0 with symmetry is DISCOURAGED, use correct ibrav instead

     Parallelization info
     --------------------
     sticks:   dense  smooth     PW     G-vecs:    dense   smooth      PW
     Min         810     407    129                28543    10102    1813
     Max         811     409    130                28546    10103    1814
     Sum        3243    1631    519               114179    40409    7255



     bravais-lattice index     =            0
     lattice parameter (alat)  =      10.3359  a.u.
     unit-cell volume          =     845.0606 (a.u.)^3
     number of atoms/cell      =           12
     number of atomic types    =            2
     number of electrons       =        96.00
     number of Kohn-Sham states=           58
     kinetic-energy cutoff     =      50.0000  Ry
     charge density cutoff     =     400.0000  Ry
     scf convergence threshold =      1.0E-08
     mixing beta               =       0.3000
     number of iterations used =            8  plain     mixing
     energy convergence thresh.=      1.0E-05
     force convergence thresh. =      1.0E-04
     press convergence thresh. =      5.0E-01
     Exchange-correlation= SLA  PW   PBX  PBC
                           (   1   4   3   4   0   0   0)
     nstep                     =           50


     celldm(1)=  10.335861  celldm(2)=   0.000000  celldm(3)=   0.000000
     celldm(4)=   0.000000  celldm(5)=   0.000000  celldm(6)=   0.000000

     crystal axes: (cart. coord. in units of alat)
               a(1) = (  -0.541040   0.594693   0.594656 )  
               a(2) = (   0.541039  -0.594694   0.594657 )  
               a(3) = (   0.541039   0.594694  -0.594657 )  

     reciprocal axes: (cart. coord. in units 2 pi/alat)
               b(1) = (  0.000001  0.840770  0.840822 )  
               b(2) = (  0.924148  0.000001  0.840822 )  
               b(3) = (  0.924148  0.840770  0.000001 )  


     PseudoPot. # 1 for Ti read from file:
     /data/pseudopotentials/ti_pbe_v1.4.uspp.F.UPF
     MD5 check sum: 88a00a6731bd790ddea75d31a80cb452
     Pseudo is Ultrasoft + core correction, Zval = 12.0
     Generated by new atomic code, or converted to UPF format
     Using radial grid of  851 points,  6 beta functions with: 
                l(1) =   0
                l(2) =   0
                l(3) =   1
                l(4) =   1
                l(5) =   2
                l(6) =   2
     Q(r) pseudized with  6 coefficients,  rinner =    1.000   1.000   1.000
                                                       1.000   1.000

     PseudoPot. # 2 for O  read from file:
     /data/pseudopotentials/O.pbe-n-kjpaw_psl.0.1.UPF
     MD5 check sum: 833c495a5d0f9b75bf046115549bffff
     Pseudo is Projector augmented-wave + core cor, Zval =  6.0
     Generated using &quot;atomic&quot; code by A. Dal Corso  v.6.3
     Shape of augmentation charge: BESSEL
     Using radial grid of 1095 points,  4 beta functions with: 
                l(1) =   0
                l(2) =   0
                l(3) =   1
                l(4) =   1
     Q(r) pseudized with 0 coefficients 


     atomic species   valence    mass     pseudopotential
        Ti            12.00    47.86700     Ti( 1.00)
        O              6.00    15.99900     O ( 1.00)

      2 Sym. Ops., with inversion, found



   Cartesian axes

     site n.     atom                  positions (alat units)
         1           Ti  tau(   1) = (   0.5410334   0.2973465   0.2973250  )
         2           Ti  tau(   2) = (   0.0000012   0.2973466   0.2973312  )
         3           Ti  tau(   3) = (   0.2705205   0.2973468  -0.2973287  )
         4           Ti  tau(   4) = (   0.2705218  -0.2973474   0.2973279  )
         5           O   tau(   5) = (   0.2708477   0.2973456   0.0646049  )
         6           O   tau(   6) = (   0.5410389   0.5300634  -0.2978271  )
         7           O   tau(   7) = (   0.2701917  -0.2973477   0.6592611  )
         8           O   tau(   8) = (  -0.0000003   0.6593233   0.2968288  )
         9           O   tau(   9) = (   0.5410376  -0.0646311   0.2978267  )
        10           O   tau(  10) = (  -0.0000015   0.0646295   0.8924823  )
        11           O   tau(  11) = (  -0.2701913   0.2973466   0.5300522  )
        12           O   tau(  12) = (   0.2701912   0.2973469   0.5300507  )

     number of k points=   184  Gaussian smearing, width (Ry)=  0.0050

     Number of k-points >= 100: set verbosity='high' to print them.

     Dense  grid:   114179 G-vectors     FFT dimensions: (  72,  72,  72)

     Smooth grid:    40409 G-vectors     FFT dimensions: (  48,  48,  48)

     Estimated max dynamical RAM per process >     177.38 MB

     Estimated total dynamical RAM >       1.39 GB

     Check: negative core charge=   -0.000007

     Initial potential from superposition of free atoms

     starting charge   91.99981, renormalised to   96.00000

     negative rho (up, down):  4.383E-03 0.000E+00
     Starting wfcs are   72 randomized atomic wfcs
     Checking if some PAW data can be deallocated... 

     total cpu time spent up to now is       30.8 secs

     Self-consistent Calculation

     iteration #  1     ecut=    50.00 Ry     beta= 0.30
     Davidson diagonalization with overlap
     ethr =  1.00E-02,  avg # of iterations =  2.0

     negative rho (up, down):  6.344E-03 0.000E+00

     total cpu time spent up to now is      109.1 secs

     total energy              =    -811.23284784 Ry
     estimated scf accuracy    <       2.63955602 Ry

     iteration #  2     ecut=    50.00 Ry     beta= 0.30
     Davidson diagonalization with overlap
     ethr =  2.75E-03,  avg # of iterations =  3.9

     negative rho (up, down):  5.635E-03 0.000E+00

     total cpu time spent up to now is      190.7 secs

     total energy              =    -811.81794609 Ry
     estimated scf accuracy    <       0.21190030 Ry

     iteration #  3     ecut=    50.00 Ry     beta= 0.30
     Davidson diagonalization with overlap
     ethr =  2.21E-04,  avg # of iterations =  3.7

     negative rho (up, down):  4.552E-03 0.000E+00

     total cpu time spent up to now is      269.8 secs

     total energy              =    -811.83580781 Ry
     estimated scf accuracy    <       0.05619369 Ry

     iteration #  4     ecut=    50.00 Ry     beta= 0.30
     Davidson diagonalization with overlap
     ethr =  5.85E-05,  avg # of iterations =  4.1

     negative rho (up, down):  4.770E-03 0.000E+00

     total cpu time spent up to now is      360.3 secs

     total energy              =    -811.83408257 Ry
     estimated scf accuracy    <       0.04405359 Ry

     iteration #  5     ecut=    50.00 Ry     beta= 0.30
     Davidson diagonalization with overlap
     ethr =  4.59E-05,  avg # of iterations =  4.2

     negative rho (up, down):  4.363E-03 0.000E+00

     total cpu time spent up to now is      460.7 secs

     total energy              =    -811.84813505 Ry
     estimated scf accuracy    <       0.04018062 Ry

     iteration #  6     ecut=    50.00 Ry     beta= 0.30
     Davidson diagonalization with overlap
     ethr =  4.19E-05,  avg # of iterations =  1.8

     negative rho (up, down):  4.236E-03 0.000E+00

     total cpu time spent up to now is      528.0 secs

     total energy              =    -811.84888126 Ry
     estimated scf accuracy    <       0.00937470 Ry

     iteration #  7     ecut=    50.00 Ry     beta= 0.30
     Davidson diagonalization with overlap
     ethr =  9.77E-06,  avg # of iterations =  4.1

     negative rho (up, down):  4.208E-03 0.000E+00

     total cpu time spent up to now is      610.5 secs

     total energy              =    -811.85040731 Ry
     estimated scf accuracy    <       0.00027968 Ry

     iteration #  8     ecut=    50.00 Ry     beta= 0.30
     Davidson diagonalization with overlap
     ethr =  2.91E-07,  avg # of iterations =  4.6

     negative rho (up, down):  4.199E-03 0.000E+00

     total cpu time spent up to now is      702.6 secs

     total energy              =    -811.85052091 Ry
     estimated scf accuracy    <       0.00003207 Ry

     iteration #  9     ecut=    50.00 Ry     beta= 0.30
     Davidson diagonalization with overlap
     ethr =  3.34E-08,  avg # of iterations =  2.2

     negative rho (up, down):  4.203E-03 0.000E+00

     total cpu time spent up to now is      784.1 secs

     total energy              =    -811.85052559 Ry
     estimated scf accuracy    <       0.00000168 Ry

     iteration # 10     ecut=    50.00 Ry     beta= 0.30
     Davidson diagonalization with overlap
     ethr =  1.76E-09,  avg # of iterations =  4.0

     negative rho (up, down):  4.204E-03 0.000E+00

     total cpu time spent up to now is      890.0 secs

     total energy              =    -811.85052633 Ry
     estimated scf accuracy    <       0.00000039 Ry

     iteration # 11     ecut=    50.00 Ry     beta= 0.30
     Davidson diagonalization with overlap
     ethr =  4.11E-10,  avg # of iterations =  2.8

     negative rho (up, down):  4.204E-03 0.000E+00

     total cpu time spent up to now is      968.5 secs

     total energy              =    -811.85052640 Ry
     estimated scf accuracy    <       0.00000015 Ry

     iteration # 12     ecut=    50.00 Ry     beta= 0.30
     Davidson diagonalization with overlap
     ethr =  1.59E-10,  avg # of iterations =  3.9

     negative rho (up, down):  4.204E-03 0.000E+00

     total cpu time spent up to now is     1048.8 secs

     End of self-consistent calculation

     Number of k-points >= 100: set verbosity='high' to print the bands.

     the Fermi energy is    10.1957 ev

!    total energy              =    -811.85052645 Ry
     estimated scf accuracy    <          4.9E-09 Ry
     smearing contrib. (-TS)   =      -0.00000000 Ry
     internal energy E=F+TS    =    -811.85052645 Ry

     The total energy is F=E-TS. E is the sum of the following terms:
     one-electron contribution =    -247.46855037 Ry
     hartree contribution      =     171.59803056 Ry
     xc contribution           =    -131.68948128 Ry
     ewald contribution        =    -528.17313703 Ry
     one-center paw contrib.   =     -76.11738832 Ry

     convergence has been achieved in  12 iterations

     negative rho (up, down):  4.204E-03 0.000E+00

     Forces acting on atoms (cartesian axes, Ry/au):

     atom    1 type  1   force =     0.00003113    0.00000001    0.00004837
     atom    2 type  1   force =    -0.00003113   -0.00000001   -0.00004837
     atom    3 type  1   force =     0.00000000    0.00000000    0.00000000
     atom    4 type  1   force =     0.00000000    0.00000000    0.00000000
     atom    5 type  2   force =    -0.00001845    0.00000074    0.00022787
     atom    6 type  2   force =    -0.00000582   -0.00005932    0.00029763
     atom    7 type  2   force =     0.00001778   -0.00000009    0.00023851
     atom    8 type  2   force =    -0.00000671    0.00005897    0.00029722
     atom    9 type  2   force =     0.00000671   -0.00005897   -0.00029722
     atom   10 type  2   force =     0.00000582    0.00005932   -0.00029763
     atom   11 type  2   force =    -0.00001778    0.00000009   -0.00023851
     atom   12 type  2   force =     0.00001845   -0.00000074   -0.00022787

     Total force =     0.000770     Total SCF correction =     0.000095
     SCF correction compared to forces is large: reduce conv_thr to get better values


     Computing stress (Cartesian axis) and pressure


     negative rho (up, down):  4.204E-03 0.000E+00
          total   stress  (Ry/bohr**3)                   (kbar)     P=       41.08
   0.00024193   0.00000001   0.00000001           35.59        0.00        0.00
   0.00000001   0.00029693   0.00000001            0.00       43.68        0.00
   0.00000001   0.00000001   0.00029897            0.00        0.00       43.98


     BFGS Geometry Optimization
     Energy error            =      0.0E+00
     Gradient error          =      3.0E-04
     Cell gradient error     =      3.0E-04


     number of scf cycles    =   1
     number of bfgs steps    =   0

     enthalpy new            =    -811.8505264487 Ry

     new trust radius        =       0.0434557481 bohr
     new conv_thr            =       0.0000000100 Ry

     new unit-cell volume =    862.88427 a.u.^3 (   127.86626 Ang^3 )
     density =      4.14868 g/cm^3

CELL_PARAMETERS (angstrom)
  -2.977113444   3.276821212   3.276783804
   2.977111609  -3.276826674   3.276786628
   2.977111113   3.276823558  -3.276788249

ATOMIC_POSITIONS (angstrom)
Ti            2.9770981016        1.6384104673        1.6384016926
Ti           -0.0000093656        1.6384106428        1.6383833733
Ti            1.4885608558        1.6384115824       -1.6383943211
Ti            1.4885687550       -1.6384140253        1.6383906597
O             1.4903523697        1.6384056955        0.3561200396
O             2.9771081601        2.9206723276       -1.6409815552
O             1.4867623680       -1.6384153756        3.6329082025
O            -0.0000040434        3.6329711933        1.6357996083
O             2.9771080818       -0.3561546706        1.6409815910
O            -0.0000034966        0.3561476357        4.9177606246
O            -1.4867584571        1.6384110597        2.9206633757
O             1.4867603320        1.6384121706        2.9206617168



     Writing output data file ./out/O2Ti.save/
     NEW-OLD atomic charge density approx. for the potential

     Check: negative core charge=   -0.000007

     negative rho (up, down):  4.196E-03 0.000E+00
     extrapolated charge   97.90034, renormalised to   96.00000

     total cpu time spent up to now is     1099.3 secs

     Self-consistent Calculation

     iteration #  1     ecut=    50.00 Ry     beta= 0.30
     Davidson diagonalization with overlap
     c_bands:  1 eigenvalues not converged
     ethr =  1.00E-06,  avg # of iterations =  7.2

     negative rho (up, down):  4.851E-03 0.000E+00

     total cpu time spent up to now is     1299.0 secs

     total energy              =    -811.73771863 Ry
     estimated scf accuracy    <       0.10990838 Ry

     iteration #  2     ecut=    50.00 Ry     beta= 0.30
     Davidson diagonalization with overlap
     ethr =  1.14E-04,  avg # of iterations =  5.0

     negative rho (up, down):  4.422E-03 0.000E+00

     total cpu time spent up to now is     1417.8 secs

     total energy              =    -811.84836435 Ry
     estimated scf accuracy    <       0.11630283 Ry

     iteration #  3     ecut=    50.00 Ry     beta= 0.30
     Davidson diagonalization with overlap
     ethr =  1.14E-04,  avg # of iterations =  1.9

     negative rho (up, down):  4.279E-03 0.000E+00

     total cpu time spent up to now is     1480.4 secs

     total energy              =    -811.85213705 Ry
     estimated scf accuracy    <       0.02020476 Ry

     iteration #  4     ecut=    50.00 Ry     beta= 0.30
     Davidson diagonalization with overlap
     ethr =  2.10E-05,  avg # of iterations =  4.0

     negative rho (up, down):  4.274E-03 0.000E+00

     total cpu time spent up to now is     1557.5 secs

     total energy              =    -811.85444107 Ry
     estimated scf accuracy    <       0.00523521 Ry

     iteration #  5     ecut=    50.00 Ry     beta= 0.30
     Davidson diagonalization with overlap
     ethr =  5.45E-06,  avg # of iterations =  1.8

     negative rho (up, down):  4.218E-03 0.000E+00

     total cpu time spent up to now is     1621.9 secs

     total energy              =    -811.85366251 Ry
     estimated scf accuracy    <       0.00485596 Ry

     iteration #  6     ecut=    50.00 Ry     beta= 0.30
     Davidson diagonalization with overlap
     ethr =  5.06E-06,  avg # of iterations =  1.0

     negative rho (up, down):  4.099E-03 0.000E+00

     total cpu time spent up to now is     1677.3 secs

     total energy              =    -811.85234980 Ry
     estimated scf accuracy    <       0.00297208 Ry

     iteration #  7     ecut=    50.00 Ry     beta= 0.30
     Davidson diagonalization with overlap
     ethr =  3.10E-06,  avg # of iterations =  2.0

     negative rho (up, down):  4.045E-03 0.000E+00

     total cpu time spent up to now is     1751.2 secs

     total energy              =    -811.85243245 Ry
     estimated scf accuracy    <       0.00064381 Ry

     iteration #  8     ecut=    50.00 Ry     beta= 0.30
     Davidson diagonalization with overlap
     ethr =  6.71E-07,  avg # of iterations =  4.1

     negative rho (up, down):  4.055E-03 0.000E+00

     total cpu time spent up to now is     1835.1 secs

     total energy              =    -811.85260620 Ry
     estimated scf accuracy    <       0.00002848 Ry

     iteration #  9     ecut=    50.00 Ry     beta= 0.30
     Davidson diagonalization with overlap
     ethr =  2.97E-08,  avg # of iterations =  4.8

     negative rho (up, down):  4.046E-03 0.000E+00

     total cpu time spent up to now is     1943.2 secs

     total energy              =    -811.85261870 Ry
     estimated scf accuracy    <       0.00013603 Ry

     iteration # 10     ecut=    50.00 Ry     beta= 0.30
     Davidson diagonalization with overlap
     ethr =  2.97E-08,  avg # of iterations =  2.0

     negative rho (up, down):  4.055E-03 0.000E+00

     total cpu time spent up to now is     2018.3 secs

     total energy              =    -811.85259828 Ry
     estimated scf accuracy    <       0.00009752 Ry

     iteration # 11     ecut=    50.00 Ry     beta= 0.30
     Davidson diagonalization with overlap
     ethr =  2.97E-08,  avg # of iterations =  3.9

     negative rho (up, down):  4.058E-03 0.000E+00

     total cpu time spent up to now is     2093.7 secs

     total energy              =    -811.85260291 Ry
     estimated scf accuracy    <       0.00001141 Ry

     iteration # 12     ecut=    50.00 Ry     beta= 0.30
     Davidson diagonalization with overlap
     ethr =  1.19E-08,  avg # of iterations =  3.2

     negative rho (up, down):  4.058E-03 0.000E+00

     total cpu time spent up to now is     2163.7 secs

     total energy              =    -811.85260337 Ry
     estimated scf accuracy    <       0.00000246 Ry

     iteration # 13     ecut=    50.00 Ry     beta= 0.30
     Davidson diagonalization with overlap
     ethr =  2.56E-09,  avg # of iterations =  4.0

     negative rho (up, down):  4.058E-03 0.000E+00

     total cpu time spent up to now is     2247.0 secs

     total energy              =    -811.85260395 Ry
     estimated scf accuracy    <       0.00000014 Ry

     iteration # 14     ecut=    50.00 Ry     beta= 0.30
     Davidson diagonalization with overlap
     ethr =  1.50E-10,  avg # of iterations =  2.2

     negative rho (up, down):  4.058E-03 0.000E+00

     total cpu time spent up to now is     2319.2 secs

     total energy              =    -811.85260398 Ry
     estimated scf accuracy    <       0.00000011 Ry

     iteration # 15     ecut=    50.00 Ry     beta= 0.30
     Davidson diagonalization with overlap
     ethr =  1.14E-10,  avg # of iterations =  3.1

     negative rho (up, down):  4.059E-03 0.000E+00

     total cpu time spent up to now is     2388.4 secs

     total energy              =    -811.85260400 Ry
     estimated scf accuracy    <       0.00000022 Ry

     iteration # 16     ecut=    50.00 Ry     beta= 0.30
     Davidson diagonalization with overlap
     ethr =  1.14E-10,  avg # of iterations =  3.0

     negative rho (up, down):  4.059E-03 0.000E+00

     total cpu time spent up to now is     2467.1 secs

     total energy              =    -811.85260392 Ry
     estimated scf accuracy    <       0.00000038 Ry

     iteration # 17     ecut=    50.00 Ry     beta= 0.30
     Davidson diagonalization with overlap
     ethr =  1.14E-10,  avg # of iterations =  3.3

     negative rho (up, down):  4.059E-03 0.000E+00

     total cpu time spent up to now is     2544.5 secs

     total energy              =    -811.85260394 Ry
     estimated scf accuracy    <       0.00000004 Ry

     iteration # 18     ecut=    50.00 Ry     beta= 0.30
     Davidson diagonalization with overlap
     ethr =  3.87E-11,  avg # of iterations =  4.0

     negative rho (up, down):  4.059E-03 0.000E+00

     total cpu time spent up to now is     2620.4 secs

     End of self-consistent calculation

     Number of k-points >= 100: set verbosity='high' to print the bands.

     the Fermi energy is     9.7586 ev

!    total energy              =    -811.85260395 Ry
     estimated scf accuracy    <          1.7E-09 Ry
     smearing contrib. (-TS)   =      -0.00000000 Ry
     internal energy E=F+TS    =    -811.85260395 Ry

     The total energy is F=E-TS. E is the sum of the following terms:
     one-electron contribution =    -253.00554781 Ry
     hartree contribution      =     173.22183496 Ry
     xc contribution           =    -131.51582867 Ry
     ewald contribution        =    -524.43175522 Ry
     one-center paw contrib.   =     -76.12130721 Ry

     convergence has been achieved in  18 iterations

     negative rho (up, down):  4.059E-03 0.000E+00

     Forces acting on atoms (cartesian axes, Ry/au):

     atom    1 type  1   force =     0.00000275   -0.00000016   -0.00003885
     atom    2 type  1   force =    -0.00000275    0.00000016    0.00003885
     atom    3 type  1   force =     0.00000000    0.00000000    0.00000000
     atom    4 type  1   force =     0.00000000    0.00000000    0.00000000
     atom    5 type  2   force =    -0.00001318    0.00000044    0.00380999
     atom    6 type  2   force =    -0.00000014   -0.00377681    0.00028381
     atom    7 type  2   force =     0.00001320   -0.00000014    0.00381019
     atom    8 type  2   force =    -0.00000023    0.00377680    0.00028379
     atom    9 type  2   force =     0.00000023   -0.00377680   -0.00028379
     atom   10 type  2   force =     0.00000014    0.00377681   -0.00028381
     atom   11 type  2   force =    -0.00001320    0.00000014   -0.00381019
     atom   12 type  2   force =     0.00001318   -0.00000044   -0.00380999

     Total force =     0.010745     Total SCF correction =     0.000012


     Computing stress (Cartesian axis) and pressure


     negative rho (up, down):  4.059E-03 0.000E+00
          total   stress  (Ry/bohr**3)                   (kbar)     P=       -7.29
  -0.00012531   0.00000000   0.00000000          -18.43        0.00        0.00
   0.00000000  -0.00001183   0.00000000            0.00       -1.74        0.00
   0.00000000   0.00000000  -0.00001145            0.00        0.00       -1.68

     Energy error            =      2.1E-03
     Gradient error          =      3.8E-03
     Cell gradient error     =      1.3E-04


     number of scf cycles    =   2
     number of bfgs steps    =   1

     enthalpy old            =    -811.8505264487 Ry
     enthalpy new            =    -811.8526039457 Ry

     CASE: enthalpy_new < enthalpy_old

     new trust radius        =       0.0142347630 bohr
     new conv_thr            =       0.0000000038 Ry

     new unit-cell volume =    861.00158 a.u.^3 (   127.58727 Ang^3 )
     density =      4.15775 g/cm^3

CELL_PARAMETERS (angstrom)
  -2.969899427   3.277199272   3.277197391
   2.969898275  -3.277204399   3.277200489
   2.969897679   3.277201803  -3.277201500

ATOMIC_POSITIONS (angstrom)
Ti            2.9698871645        1.6385998133        1.6385922414
Ti           -0.0000111298        1.6385998789        1.6386070222
Ti            1.4849541257        1.6386007050       -1.6386009468
Ti            1.4849620568       -1.6386028876        1.6385975897
O             1.4867349362        1.6385951434        0.3579370765
O             2.9698946513        2.9192578329       -1.6410487469
O             1.4831668179       -1.6386042030        3.6351391735
O            -0.0000038290        3.6351422372        1.6361458525
O             2.9698951291       -0.3579471329        1.6410495440
O            -0.0000027275        0.3579407123        4.9182420133
O            -1.4831622375        1.6386002238        2.9192598534
O             1.4831650062        1.6386013044        2.9192588771



     Writing output data file ./out/O2Ti.save/
     NEW-OLD atomic charge density approx. for the potential

     Check: negative core charge=   -0.000007

     negative rho (up, down):  4.056E-03 0.000E+00
     extrapolated charge   95.79883, renormalised to   96.00000

     total cpu time spent up to now is     2667.3 secs

     Self-consistent Calculation

     iteration #  1     ecut=    50.00 Ry     beta= 0.30
     Davidson diagonalization with overlap
     ethr =  1.00E-06,  avg # of iterations =  5.1

     negative rho (up, down):  3.982E-03 0.000E+00

     total cpu time spent up to now is     2786.8 secs

     total energy              =    -811.85131000 Ry
     estimated scf accuracy    <       0.00179247 Ry

     iteration #  2     ecut=    50.00 Ry     beta= 0.30
     Davidson diagonalization with overlap
     ethr =  1.87E-06,  avg # of iterations =  5.0

     negative rho (up, down):  4.025E-03 0.000E+00

     total cpu time spent up to now is     2896.6 secs

     total energy              =    -811.85280486 Ry
     estimated scf accuracy    <       0.00161601 Ry

     iteration #  3     ecut=    50.00 Ry     beta= 0.30
     Davidson diagonalization with overlap
     ethr =  1.68E-06,  avg # of iterations =  1.9

     negative rho (up, down):  4.044E-03 0.000E+00

     total cpu time spent up to now is     2957.9 secs

     total energy              =    -811.85283459 Ry
     estimated scf accuracy    <       0.00030843 Ry

     iteration #  4     ecut=    50.00 Ry     beta= 0.30
     Davidson diagonalization with overlap
     ethr =  3.21E-07,  avg # of iterations =  4.0

     negative rho (up, down):  4.045E-03 0.000E+00

     total cpu time spent up to now is     3031.7 secs

     total energy              =    -811.85287541 Ry
     estimated scf accuracy    <       0.00004547 Ry

     iteration #  5     ecut=    50.00 Ry     beta= 0.30
     Davidson diagonalization with overlap
     ethr =  4.74E-08,  avg # of iterations =  4.0

     negative rho (up, down):  4.073E-03 0.000E+00

     total cpu time spent up to now is     3115.9 secs

     total energy              =    -811.85284411 Ry
     estimated scf accuracy    <       0.00012144 Ry

     iteration #  6     ecut=    50.00 Ry     beta= 0.30
     Davidson diagonalization with overlap
     ethr =  4.74E-08,  avg # of iterations =  4.0

     negative rho (up, down):  4.071E-03 0.000E+00

     total cpu time spent up to now is     3210.7 secs

     total energy              =    -811.85286141 Ry
     estimated scf accuracy    <       0.00000264 Ry

     iteration #  7     ecut=    50.00 Ry     beta= 0.30
     Davidson diagonalization with overlap
     ethr =  2.74E-09,  avg # of iterations =  4.3

     negative rho (up, down):  4.070E-03 0.000E+00

     total cpu time spent up to now is     3306.8 secs

     total energy              =    -811.85286258 Ry
     estimated scf accuracy    <       0.00000200 Ry

     iteration #  8     ecut=    50.00 Ry     beta= 0.30
     Davidson diagonalization with overlap
     ethr =  2.08E-09,  avg # of iterations =  1.0

     negative rho (up, down):  4.071E-03 0.000E+00

     total cpu time spent up to now is     3361.9 secs

     total energy              =    -811.85286244 Ry
     estimated scf accuracy    <       0.00000091 Ry

     iteration #  9     ecut=    50.00 Ry     beta= 0.30
     Davidson diagonalization with overlap
     ethr =  9.48E-10,  avg # of iterations =  2.7

     negative rho (up, down):  4.071E-03 0.000E+00

     total cpu time spent up to now is     3433.7 secs

     total energy              =    -811.85286248 Ry
     estimated scf accuracy    <       0.00000015 Ry

     iteration # 10     ecut=    50.00 Ry     beta= 0.30
     Davidson diagonalization with overlap
     ethr =  1.59E-10,  avg # of iterations =  4.0

     negative rho (up, down):  4.071E-03 0.000E+00

     total cpu time spent up to now is     3524.6 secs

     total energy              =    -811.85286253 Ry
     estimated scf accuracy    <       0.00000002 Ry

     iteration # 11     ecut=    50.00 Ry     beta= 0.30
     Davidson diagonalization with overlap
     ethr =  2.60E-11,  avg # of iterations =  1.5

     negative rho (up, down):  4.071E-03 0.000E+00

     total cpu time spent up to now is     3588.1 secs

     total energy              =    -811.85286253 Ry
     estimated scf accuracy    <       0.00000001 Ry

     iteration # 12     ecut=    50.00 Ry     beta= 0.30
     Davidson diagonalization with overlap
     ethr =  1.34E-11,  avg # of iterations =  3.0

     negative rho (up, down):  4.071E-03 0.000E+00

     total cpu time spent up to now is     3661.0 secs

     End of self-consistent calculation

     Number of k-points >= 100: set verbosity='high' to print the bands.

     the Fermi energy is     9.8011 ev

!    total energy              =    -811.85286253 Ry
     estimated scf accuracy    <          4.5E-10 Ry
     smearing contrib. (-TS)   =      -0.00000000 Ry
     internal energy E=F+TS    =    -811.85286253 Ry

     The total energy is F=E-TS. E is the sum of the following terms:
     one-electron contribution =    -252.84955470 Ry
     hartree contribution      =     173.26097286 Ry
     xc contribution           =    -131.54030586 Ry
     ewald contribution        =    -524.60310571 Ry
     one-center paw contrib.   =     -76.12086912 Ry

     convergence has been achieved in  12 iterations

     negative rho (up, down):  4.071E-03 0.000E+00

     Forces acting on atoms (cartesian axes, Ry/au):

     atom    1 type  1   force =    -0.00000027   -0.00000016   -0.00002100
     atom    2 type  1   force =     0.00000027    0.00000016    0.00002100
     atom    3 type  1   force =     0.00000000    0.00000000    0.00000000
     atom    4 type  1   force =     0.00000000    0.00000000    0.00000000
     atom    5 type  2   force =    -0.00004871    0.00000030    0.00215899
     atom    6 type  2   force =     0.00000083   -0.00215432    0.00025161
     atom    7 type  2   force =     0.00004852   -0.00000021    0.00215859
     atom    8 type  2   force =    -0.00000036    0.00215428    0.00025172
     atom    9 type  2   force =     0.00000036   -0.00215428   -0.00025172
     atom   10 type  2   force =    -0.00000083    0.00215432   -0.00025161
     atom   11 type  2   force =    -0.00004852    0.00000021   -0.00215859
     atom   12 type  2   force =     0.00004871   -0.00000030   -0.00215899

     Total force =     0.006121     Total SCF correction =     0.000007


     Computing stress (Cartesian axis) and pressure


     negative rho (up, down):  4.071E-03 0.000E+00
          total   stress  (Ry/bohr**3)                   (kbar)     P=       -0.47
  -0.00004407   0.00000000   0.00000000           -6.48        0.00        0.00
   0.00000000   0.00001725   0.00000000            0.00        2.54        0.00
   0.00000000   0.00000000   0.00001727            0.00        0.00        2.54

     Energy error            =      2.6E-04
     Gradient error          =      2.2E-03
     Cell gradient error     =      4.4E-05


     number of scf cycles    =   3
     number of bfgs steps    =   2

     enthalpy old            =    -811.8526039457 Ry
     enthalpy new            =    -811.8528625273 Ry

     CASE: enthalpy_new < enthalpy_old

     new trust radius        =       0.0127568542 bohr
     new conv_thr            =       0.0000000022 Ry

     new unit-cell volume =    861.15092 a.u.^3 (   127.60940 Ang^3 )
     density =      4.15703 g/cm^3

CELL_PARAMETERS (angstrom)
  -2.963442445   3.281041865   3.281059099
   2.963442495  -3.281046198   3.281062479
   2.963441768   3.281044565  -3.281062413

ATOMIC_POSITIONS (angstrom)
Ti            2.9634330218        1.6405216642        1.6405017878
Ti           -0.0000116526        1.6405215862        1.6405602647
Ti            1.4817261587        1.6405220854       -1.6405314036
Ti            1.4817341383       -1.6405237879        1.6405285819
O             1.4834563671        1.6405171163        0.3607926198
O             2.9634395434        2.9202618540       -1.6427057316
O             1.4799900708       -1.6405250782        3.6418561794
O            -0.0000035169        3.6418240023        1.6383503569
O             2.9634401183       -0.3607853452        1.6427078240
O            -0.0000023197        0.3607802481        4.9237617797
O            -1.4799843019        1.6405218938        2.9202665475
O             1.4799888578        1.6405228859        2.9202661188



     Writing output data file ./out/O2Ti.save/
     NEW-OLD atomic charge density approx. for the potential

     Check: negative core charge=   -0.000007

     negative rho (up, down):  4.066E-03 0.000E+00
     extrapolated charge   96.01596, renormalised to   96.00000

     total cpu time spent up to now is     3711.8 secs

     Self-consistent Calculation

     iteration #  1     ecut=    50.00 Ry     beta= 0.30
     Davidson diagonalization with overlap
     ethr =  1.00E-06,  avg # of iterations =  3.0

     Threshold (ethr) on eigenvalues was too large:
     Diagonalizing with lowered threshold

     Davidson diagonalization with overlap
     ethr =  6.52E-08,  avg # of iterations =  3.9

     negative rho (up, down):  4.067E-03 0.000E+00

     total cpu time spent up to now is     3911.6 secs

     total energy              =    -811.85297803 Ry
     estimated scf accuracy    <       0.00007333 Ry

     iteration #  2     ecut=    50.00 Ry     beta= 0.30
     Davidson diagonalization with overlap
     ethr =  7.64E-08,  avg # of iterations =  2.0

     negative rho (up, down):  4.063E-03 0.000E+00

     total cpu time spent up to now is     3985.9 secs

     total energy              =    -811.85296968 Ry
     estimated scf accuracy    <       0.00002953 Ry

     iteration #  3     ecut=    50.00 Ry     beta= 0.30
     Davidson diagonalization with overlap
     ethr =  3.08E-08,  avg # of iterations =  2.0

     negative rho (up, down):  4.065E-03 0.000E+00

     total cpu time spent up to now is     4062.8 secs

     total energy              =    -811.85297285 Ry
     estimated scf accuracy    <       0.00000259 Ry

     iteration #  4     ecut=    50.00 Ry     beta= 0.30
     Davidson diagonalization with overlap
     ethr =  2.69E-09,  avg # of iterations =  3.0

     negative rho (up, down):  4.065E-03 0.000E+00

     total cpu time spent up to now is     4142.7 secs

     total energy              =    -811.85297341 Ry
     estimated scf accuracy    <       0.00000034 Ry

     iteration #  5     ecut=    50.00 Ry     beta= 0.30
     Davidson diagonalization with overlap
     ethr =  3.57E-10,  avg # of iterations =  3.6

     negative rho (up, down):  4.066E-03 0.000E+00

     total cpu time spent up to now is     4213.9 secs

     total energy              =    -811.85297344 Ry
     estimated scf accuracy    <       0.00000016 Ry

     iteration #  6     ecut=    50.00 Ry     beta= 0.30
     Davidson diagonalization with overlap
     ethr =  1.70E-10,  avg # of iterations =  2.0

     negative rho (up, down):  4.066E-03 0.000E+00

     total cpu time spent up to now is     4295.0 secs

     total energy              =    -811.85297346 Ry
     estimated scf accuracy    <       0.00000002 Ry

     iteration #  7     ecut=    50.00 Ry     beta= 0.30
     Davidson diagonalization with overlap
     ethr =  1.86E-11,  avg # of iterations =  4.0

     negative rho (up, down):  4.065E-03 0.000E+00

     total cpu time spent up to now is     4376.6 secs

     total energy              =    -811.85297347 Ry
     estimated scf accuracy    <          5.8E-09 Ry

     iteration #  8     ecut=    50.00 Ry     beta= 0.30
     Davidson diagonalization with overlap
     ethr =  6.01E-12,  avg # of iterations =  3.8

     negative rho (up, down):  4.066E-03 0.000E+00

     total cpu time spent up to now is     4467.5 secs

     End of self-consistent calculation

     Number of k-points >= 100: set verbosity='high' to print the bands.

     the Fermi energy is     9.7981 ev

!    total energy              =    -811.85297347 Ry
     estimated scf accuracy    <          9.5E-10 Ry
     smearing contrib. (-TS)   =      -0.00000000 Ry
     internal energy E=F+TS    =    -811.85297347 Ry

     The total energy is F=E-TS. E is the sum of the following terms:
     one-electron contribution =    -253.44931642 Ry
     hartree contribution      =     173.54980749 Ry
     xc contribution           =    -131.54750678 Ry
     ewald contribution        =    -524.28508525 Ry
     one-center paw contrib.   =     -76.12087250 Ry

     convergence has been achieved in   8 iterations

     negative rho (up, down):  4.066E-03 0.000E+00

     Forces acting on atoms (cartesian axes, Ry/au):

     atom    1 type  1   force =    -0.00000195   -0.00000014   -0.00001050
     atom    2 type  1   force =     0.00000195    0.00000014    0.00001050
     atom    3 type  1   force =     0.00000000    0.00000000    0.00000000
     atom    4 type  1   force =     0.00000000    0.00000000    0.00000000
     atom    5 type  2   force =    -0.00009587    0.00000017    0.00043636
     atom    6 type  2   force =     0.00000048   -0.00045121    0.00019801
     atom    7 type  2   force =     0.00009598   -0.00000025    0.00043582
     atom    8 type  2   force =     0.00000021    0.00045121    0.00019744
     atom    9 type  2   force =    -0.00000021   -0.00045121   -0.00019744
     atom   10 type  2   force =    -0.00000048    0.00045121   -0.00019801
     atom   11 type  2   force =    -0.00009598    0.00000025   -0.00043582
     atom   12 type  2   force =     0.00009587   -0.00000017   -0.00043636

     Total force =     0.001330     Total SCF correction =     0.000077


     Computing stress (Cartesian axis) and pressure


     negative rho (up, down):  4.066E-03 0.000E+00
          total   stress  (Ry/bohr**3)                   (kbar)     P=        1.65
   0.00000899   0.00000000  -0.00000000            1.32        0.00       -0.00
   0.00000000   0.00001240   0.00000000            0.00        1.82        0.00
  -0.00000000   0.00000000   0.00001224           -0.00        0.00        1.80

     Energy error            =      1.1E-04
     Gradient error          =      4.5E-04
     Cell gradient error     =      1.2E-05


     number of scf cycles    =   4
     number of bfgs steps    =   3

     enthalpy old            =    -811.8528625273 Ry
     enthalpy new            =    -811.8529734677 Ry

     CASE: enthalpy_new < enthalpy_old

     new trust radius        =       0.0025258813 bohr
     new conv_thr            =       0.0000000005 Ry

     new unit-cell volume =    861.78206 a.u.^3 (   127.70293 Ang^3 )
     density =      4.15398 g/cm^3

CELL_PARAMETERS (angstrom)
  -2.963071474   3.282454113   3.282462252
   2.963071624  -3.282457767   3.282465041
   2.963071145   3.282456450  -3.282464887

ATOMIC_POSITIONS (angstrom)
Ti            2.9630615795        1.6412279216        1.6411940223
Ti           -0.0000107298        1.6412278945        1.6412712729
Ti            1.4815408468        1.6412280280       -1.6412326405
Ti            1.4815487013       -1.6412295728        1.6412298618
O             1.4832102712        1.6412234137        0.3615381201
O             2.9630691943        2.9209219871       -1.6432572553
O             1.4798655370       -1.6412308261        3.6440039366
O            -0.0000032406        3.6439881554        1.6392013681
O             2.9630693205       -0.3615369346        1.6432600538
O            -0.0000024922        0.3615326802        4.9257165437
O            -1.4798596683        1.6412283213        2.9209245058
O             1.4798644312        1.6412291528        2.9209238598



     Writing output data file ./out/O2Ti.save/
     NEW-OLD atomic charge density approx. for the potential

     Check: negative core charge=   -0.000007

     negative rho (up, down):  4.064E-03 0.000E+00
     extrapolated charge   96.06738, renormalised to   96.00000

     total cpu time spent up to now is     4517.0 secs

     Self-consistent Calculation

     iteration #  1     ecut=    50.00 Ry     beta= 0.30
     Davidson diagonalization with overlap
     ethr =  1.00E-06,  avg # of iterations =  2.0

     negative rho (up, down):  4.082E-03 0.000E+00

     total cpu time spent up to now is     4609.9 secs

     total energy              =    -811.85285232 Ry
     estimated scf accuracy    <       0.00011314 Ry

     iteration #  2     ecut=    50.00 Ry     beta= 0.30
     Davidson diagonalization with overlap
     ethr =  1.18E-07,  avg # of iterations =  5.0

     negative rho (up, down):  4.072E-03 0.000E+00

     total cpu time spent up to now is     4716.0 secs

     total energy              =    -811.85298268 Ry
     estimated scf accuracy    <       0.00007986 Ry

     iteration #  3     ecut=    50.00 Ry     beta= 0.30
     Davidson diagonalization with overlap
     ethr =  8.32E-08,  avg # of iterations =  1.7

     negative rho (up, down):  4.067E-03 0.000E+00

     total cpu time spent up to now is     4781.2 secs

     total energy              =    -811.85298224 Ry
     estimated scf accuracy    <       0.00002159 Ry

     iteration #  4     ecut=    50.00 Ry     beta= 0.30
     Davidson diagonalization with overlap
     ethr =  2.25E-08,  avg # of iterations =  3.6

     negative rho (up, down):  4.062E-03 0.000E+00

     total cpu time spent up to now is     4851.8 secs

     total energy              =    -811.85297959 Ry
     estimated scf accuracy    <       0.00000794 Ry

     iteration #  5     ecut=    50.00 Ry     beta= 0.30
     Davidson diagonalization with overlap
     ethr =  8.28E-09,  avg # of iterations =  2.1

     negative rho (up, down):  4.058E-03 0.000E+00

     total cpu time spent up to now is     4930.1 secs

     total energy              =    -811.85297957 Ry
     estimated scf accuracy    <       0.00000375 Ry

     iteration #  6     ecut=    50.00 Ry     beta= 0.30
     Davidson diagonalization with overlap
     ethr =  3.91E-09,  avg # of iterations =  4.0

     negative rho (up, down):  4.059E-03 0.000E+00

     total cpu time spent up to now is     5010.1 secs

     total energy              =    -811.85298050 Ry
     estimated scf accuracy    <       0.00000046 Ry

     iteration #  7     ecut=    50.00 Ry     beta= 0.30
     Davidson diagonalization with overlap
     ethr =  4.84E-10,  avg # of iterations =  3.5

     negative rho (up, down):  4.060E-03 0.000E+00

     total cpu time spent up to now is     5086.1 secs

     total energy              =    -811.85298043 Ry
     estimated scf accuracy    <       0.00000033 Ry

     iteration #  8     ecut=    50.00 Ry     beta= 0.30
     Davidson diagonalization with overlap
     ethr =  3.45E-10,  avg # of iterations =  3.0

     negative rho (up, down):  4.060E-03 0.000E+00

     total cpu time spent up to now is     5157.5 secs

     total energy              =    -811.85298048 Ry
     estimated scf accuracy    <          5.5E-09 Ry

     iteration #  9     ecut=    50.00 Ry     beta= 0.30
     Davidson diagonalization with overlap
     ethr =  5.77E-12,  avg # of iterations =  5.2

     negative rho (up, down):  4.060E-03 0.000E+00

     total cpu time spent up to now is     5288.3 secs

     total energy              =    -811.85298049 Ry
     estimated scf accuracy    <       0.00000003 Ry

     iteration # 10     ecut=    50.00 Ry     beta= 0.30
     Davidson diagonalization with overlap
     ethr =  5.77E-12,  avg # of iterations =  3.9

     negative rho (up, down):  4.060E-03 0.000E+00

     total cpu time spent up to now is     5372.6 secs

     total energy              =    -811.85298049 Ry
     estimated scf accuracy    <          6.2E-09 Ry

     iteration # 11     ecut=    50.00 Ry     beta= 0.30
     Davidson diagonalization with overlap
     ethr =  5.77E-12,  avg # of iterations =  4.0

     negative rho (up, down):  4.060E-03 0.000E+00

     total cpu time spent up to now is     5452.1 secs

     End of self-consistent calculation

     Number of k-points >= 100: set verbosity='high' to print the bands.

     the Fermi energy is     9.7842 ev

!    total energy              =    -811.85298049 Ry
     estimated scf accuracy    <          4.0E-10 Ry
     smearing contrib. (-TS)   =      -0.00000000 Ry
     internal energy E=F+TS    =    -811.85298049 Ry

     The total energy is F=E-TS. E is the sum of the following terms:
     one-electron contribution =    -253.74734791 Ry
     hartree contribution      =     173.65943345 Ry
     xc contribution           =    -131.54331478 Ry
     ewald contribution        =    -524.10074774 Ry
     one-center paw contrib.   =     -76.12100351 Ry

     convergence has been achieved in  11 iterations

     negative rho (up, down):  4.060E-03 0.000E+00

     Forces acting on atoms (cartesian axes, Ry/au):

     atom    1 type  1   force =    -0.00000070   -0.00000011   -0.00001052
     atom    2 type  1   force =     0.00000070    0.00000011    0.00001052
     atom    3 type  1   force =     0.00000000    0.00000000    0.00000000
     atom    4 type  1   force =     0.00000000    0.00000000    0.00000000
     atom    5 type  2   force =    -0.00010701    0.00000013    0.00015126
     atom    6 type  2   force =     0.00000018   -0.00015811    0.00017446
     atom    7 type  2   force =     0.00010688   -0.00000023    0.00015111
     atom    8 type  2   force =     0.00000006    0.00015810    0.00017347
     atom    9 type  2   force =    -0.00000006   -0.00015810   -0.00017347
     atom   10 type  2   force =    -0.00000018    0.00015811   -0.00017446
     atom   11 type  2   force =    -0.00010688    0.00000023   -0.00015111
     atom   12 type  2   force =     0.00010701   -0.00000013   -0.00015126

     Total force =     0.000599     Total SCF correction =     0.000004


     Computing stress (Cartesian axis) and pressure


     negative rho (up, down):  4.060E-03 0.000E+00
          total   stress  (Ry/bohr**3)                   (kbar)     P=        0.62
   0.00000625   0.00000000  -0.00000000            0.92        0.00       -0.00
   0.00000000   0.00000322   0.00000000            0.00        0.47        0.00
  -0.00000000   0.00000000   0.00000316           -0.00        0.00        0.46

     Energy error            =      7.0E-06
     Gradient error          =      1.7E-04
     Cell gradient error     =      6.2E-06


     number of scf cycles    =   5
     number of bfgs steps    =   4

     enthalpy old            =    -811.8529734677 Ry
     enthalpy new            =    -811.8529804897 Ry

     CASE: enthalpy_new < enthalpy_old

     new trust radius        =       0.0007799716 bohr
     new conv_thr            =            1.0E-10 Ry

     new unit-cell volume =    862.09182 a.u.^3 (   127.74883 Ang^3 )
     density =      4.15249 g/cm^3

CELL_PARAMETERS (angstrom)
  -2.963354321   3.282890357   3.282892830
   2.963354358  -3.282893574   3.282895077
   2.963354074   3.282892331  -3.282895027

ATOMIC_POSITIONS (angstrom)
Ti            2.9633439292        1.6414460083        1.6414001061
Ti           -0.0000102660        1.6414461265        1.6414956631
Ti            1.4816823116        1.6414459685       -1.6414477106
Ti            1.4816900697       -1.6414474764        1.6414448795
O             1.4832700624        1.6414416034        0.3618115959
O             2.9633522265        2.9210794246       -1.6433284681
O             1.4800884234       -1.6414487819        3.6447073909
O            -0.0000031871        3.6447028761        1.6395598069
O             2.9633520820       -0.3618153372        1.6433320886
O            -0.0000027093        0.3618115612        4.9262182298
O            -1.4800826673        1.6414467145        2.9210816656
O             1.4800874558        1.6414472813        2.9210808576



     Writing output data file ./out/O2Ti.save/
     NEW-OLD atomic charge density approx. for the potential

     Check: negative core charge=   -0.000007

     negative rho (up, down):  4.060E-03 0.000E+00
     extrapolated charge   96.03306, renormalised to   96.00000

     total cpu time spent up to now is     5502.7 secs

     Self-consistent Calculation

     iteration #  1     ecut=    50.00 Ry     beta= 0.30
     Davidson diagonalization with overlap
     ethr =  1.00E-06,  avg # of iterations =  2.0

     Threshold (ethr) on eigenvalues was too large:
     Diagonalizing with lowered threshold

     Davidson diagonalization with overlap
     ethr =  2.97E-08,  avg # of iterations =  1.2

     negative rho (up, down):  4.070E-03 0.000E+00

     total cpu time spent up to now is     5654.3 secs

     total energy              =    -811.85294168 Ry
     estimated scf accuracy    <       0.00003249 Ry

     iteration #  2     ecut=    50.00 Ry     beta= 0.30
     Davidson diagonalization with overlap
     ethr =  3.38E-08,  avg # of iterations =  5.0

     negative rho (up, down):  4.064E-03 0.000E+00

     total cpu time spent up to now is     5765.4 secs

     total energy              =    -811.85297552 Ry
     estimated scf accuracy    <       0.00002767 Ry

     iteration #  3     ecut=    50.00 Ry     beta= 0.30
     Davidson diagonalization with overlap
     ethr =  2.88E-08,  avg # of iterations =  1.7

     negative rho (up, down):  4.062E-03 0.000E+00

     total cpu time spent up to now is     5830.6 secs

     total energy              =    -811.85297580 Ry
     estimated scf accuracy    <       0.00000625 Ry

     iteration #  4     ecut=    50.00 Ry     beta= 0.30
     Davidson diagonalization with overlap
     ethr =  6.51E-09,  avg # of iterations =  4.0

     negative rho (up, down):  4.061E-03 0.000E+00

     total cpu time spent up to now is     5906.3 secs

     total energy              =    -811.85297624 Ry
     estimated scf accuracy    <       0.00000164 Ry

     iteration #  5     ecut=    50.00 Ry     beta= 0.30
     Davidson diagonalization with overlap
     ethr =  1.71E-09,  avg # of iterations =  1.7

     negative rho (up, down):  4.057E-03 0.000E+00

     total cpu time spent up to now is     5971.4 secs

     total energy              =    -811.85297543 Ry
     estimated scf accuracy    <       0.00000169 Ry

     iteration #  6     ecut=    50.00 Ry     beta= 0.30
     Davidson diagonalization with overlap
     ethr =  1.71E-09,  avg # of iterations =  2.9

     negative rho (up, down):  4.057E-03 0.000E+00

     total cpu time spent up to now is     6055.1 secs

     total energy              =    -811.85297575 Ry
     estimated scf accuracy    <       0.00000005 Ry

     iteration #  7     ecut=    50.00 Ry     beta= 0.30
     Davidson diagonalization with overlap
     ethr =  5.32E-11,  avg # of iterations =  4.0

     negative rho (up, down):  4.057E-03 0.000E+00

     total cpu time spent up to now is     6156.1 secs

     total energy              =    -811.85297577 Ry
     estimated scf accuracy    <       0.00000005 Ry

     iteration #  8     ecut=    50.00 Ry     beta= 0.30
     Davidson diagonalization with overlap
     ethr =  4.94E-11,  avg # of iterations =  1.0

     negative rho (up, down):  4.058E-03 0.000E+00

     total cpu time spent up to now is     6212.7 secs

     total energy              =    -811.85297576 Ry
     estimated scf accuracy    <       0.00000002 Ry

     iteration #  9     ecut=    50.00 Ry     beta= 0.30
     Davidson diagonalization with overlap
     ethr =  2.35E-11,  avg # of iterations =  3.0

     negative rho (up, down):  4.057E-03 0.000E+00

     total cpu time spent up to now is     6301.1 secs

     total energy              =    -811.85297576 Ry
     estimated scf accuracy    <          6.9E-09 Ry

     iteration # 10     ecut=    50.00 Ry     beta= 0.30
     Davidson diagonalization with overlap
     ethr =  7.16E-12,  avg # of iterations =  3.4

     negative rho (up, down):  4.057E-03 0.000E+00

     total cpu time spent up to now is     6380.2 secs

     total energy              =    -811.85297577 Ry
     estimated scf accuracy    <          1.5E-10 Ry

     iteration # 11     ecut=    50.00 Ry     beta= 0.30
     Davidson diagonalization with overlap
     ethr =  1.61E-13,  avg # of iterations =  5.1

     negative rho (up, down):  4.057E-03 0.000E+00

     total cpu time spent up to now is     6500.9 secs

     total energy              =    -811.85297577 Ry
     estimated scf accuracy    <          1.2E-10 Ry

     iteration # 12     ecut=    50.00 Ry     beta= 0.30
     Davidson diagonalization with overlap
     ethr =  1.22E-13,  avg # of iterations =  2.1

     negative rho (up, down):  4.057E-03 0.000E+00

     total cpu time spent up to now is     6580.6 secs

     End of self-consistent calculation

     Number of k-points >= 100: set verbosity='high' to print the bands.

     the Fermi energy is     9.7776 ev

!    total energy              =    -811.85297577 Ry
     estimated scf accuracy    <          5.1E-12 Ry
     smearing contrib. (-TS)   =      -0.00000000 Ry
     internal energy E=F+TS    =    -811.85297577 Ry

     The total energy is F=E-TS. E is the sum of the following terms:
     one-electron contribution =    -253.86275217 Ry
     hartree contribution      =     173.69790732 Ry
     xc contribution           =    -131.54074296 Ry
     ewald contribution        =    -524.02632255 Ry
     one-center paw contrib.   =     -76.12106540 Ry

     convergence has been achieved in  12 iterations

     negative rho (up, down):  4.057E-03 0.000E+00

     Forces acting on atoms (cartesian axes, Ry/au):

     atom    1 type  1   force =     0.00000002   -0.00000008   -0.00001116
     atom    2 type  1   force =    -0.00000002    0.00000008    0.00001116
     atom    3 type  1   force =     0.00000000    0.00000000    0.00000000
     atom    4 type  1   force =     0.00000000    0.00000000    0.00000000
     atom    5 type  2   force =    -0.00010908    0.00000005    0.00005784
     atom    6 type  2   force =    -0.00000006   -0.00005881    0.00015520
     atom    7 type  2   force =     0.00010991   -0.00000026    0.00005787
     atom    8 type  2   force =     0.00000006    0.00005880    0.00015493
     atom    9 type  2   force =    -0.00000006   -0.00005880   -0.00015493
     atom   10 type  2   force =     0.00000006    0.00005881   -0.00015520
     atom   11 type  2   force =    -0.00010991    0.00000026   -0.00005787
     atom   12 type  2   force =     0.00010908   -0.00000005   -0.00005784

     Total force =     0.000414     Total SCF correction =     0.000001


     Computing stress (Cartesian axis) and pressure


     negative rho (up, down):  4.057E-03 0.000E+00
          total   stress  (Ry/bohr**3)                   (kbar)     P=       -0.09
   0.00000079  -0.00000000   0.00000000            0.12       -0.00        0.00
  -0.00000000  -0.00000130   0.00000000           -0.00       -0.19        0.00
   0.00000000   0.00000000  -0.00000132            0.00        0.00       -0.19

     Energy error            =      4.7E-06
     Gradient error          =      1.6E-04
     Cell gradient error     =      1.3E-06


     number of scf cycles    =   6
     number of bfgs steps    =   5

     enthalpy old            =    -811.8529804897 Ry
     enthalpy new            =    -811.8529757661 Ry

     CASE: enthalpy_new > enthalpy_old

     new trust radius        =       0.0001171388 bohr
     new conv_thr            =            1.0E-10 Ry

     new unit-cell volume =    861.82857 a.u.^3 (   127.70982 Ang^3 )
     density =      4.15376 g/cm^3

CELL_PARAMETERS (angstrom)
  -2.963113951   3.282519627   3.282526915
   2.963114084  -3.282523215   3.282529622
   2.963113634   3.282521909  -3.282529484

ATOMIC_POSITIONS (angstrom)
Ti            2.9631039818        1.6412606731        1.6412249714
Ti           -0.0000106602        1.6412606678        1.6413049708
Ti            1.4815620914        1.6412607575       -1.6412649389
Ti            1.4815699315       -1.6412622968        1.6412621524
O             1.4832192514        1.6412561807        0.3615791860
O             2.9631116991        2.9209456344       -1.6432679522
O             1.4798990083       -1.6412635579        3.6441095751
O            -0.0000032325        3.6440954857        1.6392551947
O             2.9631117846       -0.3615787402        1.6432708742
O            -0.0000025248        0.3615745576        4.9257918875
O            -1.4798931565        1.6412611188        2.9209481113
O             1.4798979232        1.6412619106        2.9209474409



     Writing output data file ./out/O2Ti.save/
     NEW-OLD atomic charge density approx. for the potential

     Check: negative core charge=   -0.000007

     negative rho (up, down):  4.057E-03 0.000E+00
     extrapolated charge   95.97190, renormalised to   96.00000

     total cpu time spent up to now is     6631.3 secs

     Self-consistent Calculation

     iteration #  1     ecut=    50.00 Ry     beta= 0.30
     Davidson diagonalization with overlap
     ethr =  1.00E-06,  avg # of iterations =  2.0

     Threshold (ethr) on eigenvalues was too large:
     Diagonalizing with lowered threshold

     Davidson diagonalization with overlap
     ethr =  2.16E-08,  avg # of iterations =  1.2

     negative rho (up, down):  4.049E-03 0.000E+00

     total cpu time spent up to now is     6782.7 secs

     total energy              =    -811.85295589 Ry
     estimated scf accuracy    <       0.00002371 Ry

     iteration #  2     ecut=    50.00 Ry     beta= 0.30
     Davidson diagonalization with overlap
     ethr =  2.47E-08,  avg # of iterations =  5.0

     negative rho (up, down):  4.054E-03 0.000E+00

     total cpu time spent up to now is     6894.1 secs

     total energy              =    -811.85298047 Ry
     estimated scf accuracy    <       0.00002037 Ry

     iteration #  3     ecut=    50.00 Ry     beta= 0.30
     Davidson diagonalization with overlap
     ethr =  2.12E-08,  avg # of iterations =  1.7

     negative rho (up, down):  4.056E-03 0.000E+00

     total cpu time spent up to now is     6959.0 secs

     total energy              =    -811.85298068 Ry
     estimated scf accuracy    <       0.00000460 Ry

     iteration #  4     ecut=    50.00 Ry     beta= 0.30
     Davidson diagonalization with overlap
     ethr =  4.80E-09,  avg # of iterations =  4.0

     negative rho (up, down):  4.056E-03 0.000E+00

     total cpu time spent up to now is     7032.1 secs

     total energy              =    -811.85298103 Ry
     estimated scf accuracy    <       0.00000120 Ry

     iteration #  5     ecut=    50.00 Ry     beta= 0.30
     Davidson diagonalization with overlap
     ethr =  1.25E-09,  avg # of iterations =  1.7

     negative rho (up, down):  4.060E-03 0.000E+00

     total cpu time spent up to now is     7097.3 secs

     total energy              =    -811.85298044 Ry
     estimated scf accuracy    <       0.00000125 Ry

     iteration #  6     ecut=    50.00 Ry     beta= 0.30
     Davidson diagonalization with overlap
     ethr =  1.25E-09,  avg # of iterations =  2.9

     negative rho (up, down):  4.060E-03 0.000E+00

     total cpu time spent up to now is     7181.4 secs

     total energy              =    -811.85298068 Ry
     estimated scf accuracy    <       0.00000004 Ry

     iteration #  7     ecut=    50.00 Ry     beta= 0.30
     Davidson diagonalization with overlap
     ethr =  3.99E-11,  avg # of iterations =  4.0

     negative rho (up, down):  4.060E-03 0.000E+00

     total cpu time spent up to now is     7283.0 secs

     total energy              =    -811.85298069 Ry
     estimated scf accuracy    <       0.00000003 Ry

     iteration #  8     ecut=    50.00 Ry     beta= 0.30
     Davidson diagonalization with overlap
     ethr =  3.54E-11,  avg # of iterations =  1.0

     negative rho (up, down):  4.059E-03 0.000E+00

     total cpu time spent up to now is     7340.0 secs

     total energy              =    -811.85298068 Ry
     estimated scf accuracy    <       0.00000002 Ry

     iteration #  9     ecut=    50.00 Ry     beta= 0.30
     Davidson diagonalization with overlap
     ethr =  1.70E-11,  avg # of iterations =  2.7

     negative rho (up, down):  4.059E-03 0.000E+00

     total cpu time spent up to now is     7430.4 secs

     total energy              =    -811.85298069 Ry
     estimated scf accuracy    <          5.4E-09 Ry

     iteration # 10     ecut=    50.00 Ry     beta= 0.30
     Davidson diagonalization with overlap
     ethr =  5.62E-12,  avg # of iterations =  3.2

     negative rho (up, down):  4.059E-03 0.000E+00

     total cpu time spent up to now is     7509.5 secs

     End of self-consistent calculation

     Number of k-points >= 100: set verbosity='high' to print the bands.

     the Fermi energy is     9.7833 ev

!    total energy              =    -811.85298069 Ry
     estimated scf accuracy    <          9.3E-11 Ry
     smearing contrib. (-TS)   =      -0.00000000 Ry
     internal energy E=F+TS    =    -811.85298069 Ry

     The total energy is F=E-TS. E is the sum of the following terms:
     one-electron contribution =    -253.76451262 Ry
     hartree contribution      =     173.66497866 Ry
     xc contribution           =    -131.54286314 Ry
     ewald contribution        =    -524.08957088 Ry
     one-center paw contrib.   =     -76.12101271 Ry

     convergence has been achieved in  10 iterations

     negative rho (up, down):  4.059E-03 0.000E+00

     Forces acting on atoms (cartesian axes, Ry/au):

     atom    1 type  1   force =    -0.00000060   -0.00000010   -0.00001075
     atom    2 type  1   force =     0.00000060    0.00000010    0.00001075
     atom    3 type  1   force =     0.00000000    0.00000000    0.00000000
     atom    4 type  1   force =     0.00000000    0.00000000    0.00000000
     atom    5 type  2   force =    -0.00010720    0.00000011    0.00013635
     atom    6 type  2   force =     0.00000021   -0.00014233    0.00017135
     atom    7 type  2   force =     0.00010734   -0.00000025    0.00013622
     atom    8 type  2   force =    -0.00000001    0.00014232    0.00017053
     atom    9 type  2   force =     0.00000001   -0.00014232   -0.00017053
     atom   10 type  2   force =    -0.00000021    0.00014233   -0.00017135
     atom   11 type  2   force =    -0.00010734    0.00000025   -0.00013622
     atom   12 type  2   force =     0.00010720   -0.00000011   -0.00013635

     Total force =     0.000564     Total SCF correction =     0.000006


     Computing stress (Cartesian axis) and pressure


     negative rho (up, down):  4.059E-03 0.000E+00
          total   stress  (Ry/bohr**3)                   (kbar)     P=        0.45
   0.00000504   0.00000000  -0.00000000            0.74        0.00       -0.00
   0.00000000   0.00000212   0.00000000            0.00        0.31        0.00
  -0.00000000   0.00000000   0.00000207           -0.00        0.00        0.30

     Energy error            =      2.0E-07
     Gradient error          =      1.7E-04
     Cell gradient error     =      5.0E-06


     number of scf cycles    =   7
     number of bfgs steps    =   5

     enthalpy old            =    -811.8529804897 Ry
     enthalpy new            =    -811.8529806888 Ry

     CASE: enthalpy_new < enthalpy_old

     new trust radius        =       0.0001757012 bohr
     new conv_thr            =            1.0E-10 Ry

     new unit-cell volume =    861.87790 a.u.^3 (   127.71713 Ang^3 )
     density =      4.15352 g/cm^3

CELL_PARAMETERS (angstrom)
  -2.963202639   3.282565480   3.282570859
   2.963202733  -3.282568929   3.282573391
   2.963202328   3.282567629  -3.282573289

ATOMIC_POSITIONS (angstrom)
Ti            2.9631924999        1.6412835705        1.6412431005
Ti           -0.0000105246        1.6412836290        1.6413307494
Ti            1.4816064384        1.6412836174       -1.6412868413
Ti            1.4816142562       -1.6412851541        1.6412840367
O             1.4832287784        1.6412791075        0.3616419792
O             2.9632004651        2.9209269234       -1.6432331793
O             1.4799782966       -1.6412864633        3.6442161177
O            -0.0000032705        3.6442057680        1.6393336705
O             2.9632004766       -0.3616431639        1.6432363060
O            -0.0000026367        0.3616391272        4.9258010222
O            -1.4799724840        1.6412841630        2.9209292810
O             1.4799770506        1.6412848423        2.9209285553



     Writing output data file ./out/O2Ti.save/
     NEW-OLD atomic charge density approx. for the potential

     Check: negative core charge=   -0.000007

     negative rho (up, down):  4.059E-03 0.000E+00
     extrapolated charge   96.00527, renormalised to   96.00000

     total cpu time spent up to now is     7560.0 secs

     Self-consistent Calculation

     iteration #  1     ecut=    50.00 Ry     beta= 0.30
     Davidson diagonalization with overlap
     ethr =  1.00E-06,  avg # of iterations =  2.0

     Threshold (ethr) on eigenvalues was too large:
     Diagonalizing with lowered threshold

     Davidson diagonalization with overlap
     ethr =  7.75E-10,  avg # of iterations =  1.8

     negative rho (up, down):  4.061E-03 0.000E+00

     total cpu time spent up to now is     7714.2 secs

     total energy              =    -811.85297948 Ry
     estimated scf accuracy    <       0.00000085 Ry

     iteration #  2     ecut=    50.00 Ry     beta= 0.30
     Davidson diagonalization with overlap
     ethr =  8.85E-10,  avg # of iterations =  5.0

     negative rho (up, down):  4.060E-03 0.000E+00

     total cpu time spent up to now is     7825.8 secs

     total energy              =    -811.85298035 Ry
     estimated scf accuracy    <       0.00000076 Ry

     iteration #  3     ecut=    50.00 Ry     beta= 0.30
     Davidson diagonalization with overlap
     ethr =  7.95E-10,  avg # of iterations =  1.7

     negative rho (up, down):  4.060E-03 0.000E+00

     total cpu time spent up to now is     7890.6 secs

     total energy              =    -811.85298035 Ry
     estimated scf accuracy    <       0.00000017 Ry

     iteration #  4     ecut=    50.00 Ry     beta= 0.30
     Davidson diagonalization with overlap
     ethr =  1.80E-10,  avg # of iterations =  4.0

     negative rho (up, down):  4.060E-03 0.000E+00

     total cpu time spent up to now is     7966.2 secs

     total energy              =    -811.85298036 Ry
     estimated scf accuracy    <       0.00000005 Ry

     iteration #  5     ecut=    50.00 Ry     beta= 0.30
     Davidson diagonalization with overlap
     ethr =  4.89E-11,  avg # of iterations =  2.0

     negative rho (up, down):  4.059E-03 0.000E+00

     total cpu time spent up to now is     8041.3 secs

     total energy              =    -811.85298034 Ry
     estimated scf accuracy    <       0.00000006 Ry

     iteration #  6     ecut=    50.00 Ry     beta= 0.30
     Davidson diagonalization with overlap
     ethr =  4.89E-11,  avg # of iterations =  3.3

     negative rho (up, down):  4.059E-03 0.000E+00

     total cpu time spent up to now is     8124.7 secs

     total energy              =    -811.85298035 Ry
     estimated scf accuracy    <          2.5E-09 Ry

     iteration #  7     ecut=    50.00 Ry     beta= 0.30
     Davidson diagonalization with overlap
     ethr =  2.63E-12,  avg # of iterations =  4.0

     negative rho (up, down):  4.059E-03 0.000E+00

     total cpu time spent up to now is     8220.7 secs

     total energy              =    -811.85298035 Ry
     estimated scf accuracy    <          1.6E-09 Ry

     iteration #  8     ecut=    50.00 Ry     beta= 0.30
     Davidson diagonalization with overlap
     ethr =  1.64E-12,  avg # of iterations =  1.9

     negative rho (up, down):  4.059E-03 0.000E+00

     total cpu time spent up to now is     8284.1 secs

     total energy              =    -811.85298035 Ry
     estimated scf accuracy    <          4.0E-10 Ry

     iteration #  9     ecut=    50.00 Ry     beta= 0.30
     Davidson diagonalization with overlap
     ethr =  4.18E-13,  avg # of iterations =  4.0

     negative rho (up, down):  4.059E-03 0.000E+00

     total cpu time spent up to now is     8380.5 secs

     End of self-consistent calculation

     Number of k-points >= 100: set verbosity='high' to print the bands.

     the Fermi energy is     9.7822 ev

!    total energy              =    -811.85298035 Ry
     estimated scf accuracy    <          8.1E-11 Ry
     smearing contrib. (-TS)   =      -0.00000000 Ry
     internal energy E=F+TS    =    -811.85298035 Ry

     The total energy is F=E-TS. E is the sum of the following terms:
     one-electron contribution =    -253.78253707 Ry
     hartree contribution      =     173.67114217 Ry
     xc contribution           =    -131.54252086 Ry
     ewald contribution        =    -524.07804329 Ry
     one-center paw contrib.   =     -76.12102130 Ry

     convergence has been achieved in   9 iterations

     negative rho (up, down):  4.059E-03 0.000E+00

     Forces acting on atoms (cartesian axes, Ry/au):

     atom    1 type  1   force =    -0.00000037   -0.00000009   -0.00001068
     atom    2 type  1   force =     0.00000037    0.00000009    0.00001068
     atom    3 type  1   force =     0.00000000    0.00000000    0.00000000
     atom    4 type  1   force =     0.00000000    0.00000000    0.00000000
     atom    5 type  2   force =    -0.00010738    0.00000010    0.00010561
     atom    6 type  2   force =     0.00000012   -0.00010946    0.00016433
     atom    7 type  2   force =     0.00010768   -0.00000023    0.00010554
     atom    8 type  2   force =     0.00000001    0.00010945    0.00016359
     atom    9 type  2   force =    -0.00000001   -0.00010945   -0.00016359
     atom   10 type  2   force =    -0.00000012    0.00010946   -0.00016433
     atom   11 type  2   force =    -0.00010768    0.00000023   -0.00010554
     atom   12 type  2   force =     0.00010738   -0.00000010   -0.00010561

     Total force =     0.000497     Total SCF correction =     0.000007


     Computing stress (Cartesian axis) and pressure


     negative rho (up, down):  4.059E-03 0.000E+00
          total   stress  (Ry/bohr**3)                   (kbar)     P=        0.40
   0.00000431  -0.00000000   0.00000000            0.63       -0.00        0.00
  -0.00000000   0.00000199   0.00000000           -0.00        0.29        0.00
   0.00000000   0.00000000   0.00000194            0.00        0.00        0.29

     Energy error            =      3.4E-07
     Gradient error          =      1.6E-04
     Cell gradient error     =      4.3E-06


     number of scf cycles    =   8
     number of bfgs steps    =   6

     enthalpy old            =    -811.8529806888 Ry
     enthalpy new            =    -811.8529803518 Ry

     CASE: enthalpy_new > enthalpy_old

     new trust radius        =       0.0000479227 bohr

     trust_radius < trust_radius_min

     resetting bfgs history

     new conv_thr            =            1.0E-10 Ry

     new unit-cell volume =    862.02745 a.u.^3 (   127.73929 Ang^3 )
     density =      4.15280 g/cm^3

CELL_PARAMETERS (angstrom)
  -2.963487144   3.282693890   3.282696974
   2.963487184  -3.282697227   3.282699347
   2.963486840   3.282695933  -3.282699293

ATOMIC_POSITIONS (angstrom)
Ti            2.9634767971        1.6413477580        1.6413042463
Ti           -0.0000103647        1.6413478578        1.6413956715
Ti            1.4817486952        1.6413477697       -1.6413498433
Ti            1.4817564832       -1.6413493031        1.6413470147
O             1.4833493028        1.6413433246        0.3616700954
O             2.9634849925        2.9210252200       -1.6432622569
O             1.4801421263       -1.6413506198        3.6443701821
O            -0.0000032522        3.6443641888        1.6394304178
O             2.9634849170       -0.3616731687        1.6432656264
O            -0.0000027054        0.3616692469        4.9259561673
O            -1.4801363666        1.6413484311        2.9210272885
O             1.4801409857        1.6413490413        2.9210265069



     Writing output data file ./out/O2Ti.save/
     NEW-OLD atomic charge density approx. for the potential

     Check: negative core charge=   -0.000007

     negative rho (up, down):  4.059E-03 0.000E+00
     extrapolated charge   96.01596, renormalised to   96.00000

     total cpu time spent up to now is     8431.0 secs

     Self-consistent Calculation

     iteration #  1     ecut=    50.00 Ry     beta= 0.30
     Davidson diagonalization with overlap
     ethr =  1.00E-06,  avg # of iterations =  2.0

     Threshold (ethr) on eigenvalues was too large:
     Diagonalizing with lowered threshold

     Davidson diagonalization with overlap
     ethr =  7.38E-09,  avg # of iterations =  1.6

     negative rho (up, down):  4.064E-03 0.000E+00

     total cpu time spent up to now is     8587.6 secs

     total energy              =    -811.85297118 Ry
     estimated scf accuracy    <       0.00000803 Ry

     iteration #  2     ecut=    50.00 Ry     beta= 0.30
     Davidson diagonalization with overlap
     ethr =  8.36E-09,  avg # of iterations =  5.0

     negative rho (up, down):  4.061E-03 0.000E+00

     total cpu time spent up to now is     8697.7 secs

     total energy              =    -811.85297917 Ry
     estimated scf accuracy    <       0.00000609 Ry

     iteration #  3     ecut=    50.00 Ry     beta= 0.30
     Davidson diagonalization with overlap
     ethr =  6.35E-09,  avg # of iterations =  1.9

     negative rho (up, down):  4.060E-03 0.000E+00

     total cpu time spent up to now is     8763.8 secs

     total energy              =    -811.85297927 Ry
     estimated scf accuracy    <       0.00000132 Ry

     iteration #  4     ecut=    50.00 Ry     beta= 0.30
     Davidson diagonalization with overlap
     ethr =  1.38E-09,  avg # of iterations =  4.0

     negative rho (up, down):  4.060E-03 0.000E+00

     total cpu time spent up to now is     8839.6 secs

     total energy              =    -811.85297938 Ry
     estimated scf accuracy    <       0.00000034 Ry

     iteration #  5     ecut=    50.00 Ry     beta= 0.30
     Davidson diagonalization with overlap
     ethr =  3.51E-10,  avg # of iterations =  1.2

     negative rho (up, down):  4.058E-03 0.000E+00

     total cpu time spent up to now is     8897.4 secs

     total energy              =    -811.85297917 Ry
     estimated scf accuracy    <       0.00000033 Ry

     iteration #  6     ecut=    50.00 Ry     beta= 0.30
     Davidson diagonalization with overlap
     ethr =  3.48E-10,  avg # of iterations =  2.6

     negative rho (up, down):  4.058E-03 0.000E+00

     total cpu time spent up to now is     8981.6 secs

     total energy              =    -811.85297925 Ry
     estimated scf accuracy    <       0.00000001 Ry

     iteration #  7     ecut=    50.00 Ry     beta= 0.30
     Davidson diagonalization with overlap
     ethr =  1.27E-11,  avg # of iterations =  4.0

     negative rho (up, down):  4.058E-03 0.000E+00

     total cpu time spent up to now is     9075.6 secs

     total energy              =    -811.85297925 Ry
     estimated scf accuracy    <       0.00000002 Ry

     iteration #  8     ecut=    50.00 Ry     beta= 0.30
     Davidson diagonalization with overlap
     ethr =  1.27E-11,  avg # of iterations =  2.0

     negative rho (up, down):  4.058E-03 0.000E+00

     total cpu time spent up to now is     9152.8 secs

     total energy              =    -811.85297925 Ry
     estimated scf accuracy    <          1.1E-09 Ry

     iteration #  9     ecut=    50.00 Ry     beta= 0.30
     Davidson diagonalization with overlap
     ethr =  1.18E-12,  avg # of iterations =  2.2

     negative rho (up, down):  4.058E-03 0.000E+00

     total cpu time spent up to now is     9235.6 secs

     total energy              =    -811.85297925 Ry
     estimated scf accuracy    <          2.3E-10 Ry

     iteration # 10     ecut=    50.00 Ry     beta= 0.30
     Davidson diagonalization with overlap
     ethr =  2.44E-13,  avg # of iterations =  4.2

     negative rho (up, down):  4.058E-03 0.000E+00

     total cpu time spent up to now is     9317.4 secs

     End of self-consistent calculation

     Number of k-points >= 100: set verbosity='high' to print the bands.

     the Fermi energy is     9.7790 ev

!    total energy              =    -811.85297925 Ry
     estimated scf accuracy    <          2.1E-11 Ry
     smearing contrib. (-TS)   =      -0.00000000 Ry
     internal energy E=F+TS    =    -811.85297925 Ry

     The total energy is F=E-TS. E is the sum of the following terms:
     one-electron contribution =    -253.82212823 Ry
     hartree contribution      =     173.68156600 Ry
     xc contribution           =    -131.54099081 Ry
     ewald contribution        =    -524.05037336 Ry
     one-center paw contrib.   =     -76.12105285 Ry

     convergence has been achieved in  10 iterations

     negative rho (up, down):  4.058E-03 0.000E+00

     Forces acting on atoms (cartesian axes, Ry/au):

     atom    1 type  1   force =    -0.00000011   -0.00000009   -0.00001127
     atom    2 type  1   force =     0.00000011    0.00000009    0.00001127
     atom    3 type  1   force =     0.00000000    0.00000000    0.00000000
     atom    4 type  1   force =     0.00000000    0.00000000    0.00000000
     atom    5 type  2   force =    -0.00010697    0.00000008    0.00013034
     atom    6 type  2   force =     0.00000006   -0.00013175    0.00016057
     atom    7 type  2   force =     0.00010735   -0.00000025    0.00013033
     atom    8 type  2   force =    -0.00000000    0.00013174    0.00015976
     atom    9 type  2   force =     0.00000000   -0.00013174   -0.00015976
     atom   10 type  2   force =    -0.00000006    0.00013175   -0.00016057
     atom   11 type  2   force =    -0.00010735    0.00000025   -0.00013033
     atom   12 type  2   force =     0.00010697   -0.00000008   -0.00013034

     Total force =     0.000535     Total SCF correction =     0.000002


     Computing stress (Cartesian axis) and pressure


     negative rho (up, down):  4.058E-03 0.000E+00
          total   stress  (Ry/bohr**3)                   (kbar)     P=       -0.04
   0.00000011  -0.00000000  -0.00000000            0.02       -0.00       -0.00
  -0.00000000  -0.00000048   0.00000000           -0.00       -0.07        0.00
  -0.00000000   0.00000000  -0.00000051           -0.00        0.00       -0.07

     Energy error            =      1.4E-06
     Gradient error          =      1.6E-04
[...]

ATOMIC_POSITIONS (angstrom)
Ti            2.9634898244        1.6413509512        1.6413057954
Ti           -0.0000103498        1.6413510720        1.6413997194
Ti            1.4817552057        1.6413509527       -1.6413526115
Ti            1.4817630077       -1.6413524891        1.6413497925
O             1.4833438438        1.6413465326        0.3616855883
O             2.9634980196        2.9210159159       -1.6432470288
O             1.4801606593       -1.6413538168        3.6443912199
O            -0.0000032452        3.6443862689        1.6394511397
O             2.9634979523       -0.3616888414        1.6432505016
O            -0.0000026902        0.3616849583        4.9259465363
O            -1.4801548782        1.6413516694        2.9210173841
O             1.4801594869        1.6413522407        2.9210166110
End final coordinates



     Writing output data file ./out/O2Ti.save/

     Final scf calculation at the relaxed structure.
     The G-vectors are recalculated for the final unit cell
     Results may differ from those at the preceding step.

     Parallelization info
     --------------------
     sticks:   dense  smooth     PW     G-vecs:    dense   smooth      PW
     Min         826     412    130                29128    10296    1835
     Max         827     413    131                29129    10297    1836
     Sum        3307    1651    523               116515    41185    7343



     bravais-lattice index     =            0
     lattice parameter (alat)  =      10.3359  a.u.
     unit-cell volume          =     862.0344 (a.u.)^3
     number of atoms/cell      =           12
     number of atomic types    =            2
     number of electrons       =        96.00
     number of Kohn-Sham states=           58
     kinetic-energy cutoff     =      50.0000  Ry
     charge density cutoff     =     400.0000  Ry
     scf convergence threshold =      1.0E-10
     mixing beta               =       0.3000
     number of iterations used =            8  plain     mixing
     press convergence thresh. =      5.0E-01
     Exchange-correlation= SLA  PW   PBX  PBC
                           (   1   4   3   4   0   0   0)

     celldm(1)=  10.335861  celldm(2)=   0.000000  celldm(3)=   0.000000
     celldm(4)=   0.000000  celldm(5)=   0.000000  celldm(6)=   0.000000

     crystal axes: (cart. coord. in units of alat)
               a(1) = (  -0.541823   0.600183   0.600183 )  
               a(2) = (   0.541823  -0.600183   0.600184 )  
               a(3) = (   0.541823   0.600183  -0.600183 )  

     reciprocal axes: (cart. coord. in units 2 pi/alat)
               b(1) = (  0.000000  0.833080  0.833079 )  
               b(2) = (  0.922811  0.000000  0.833079 )  
               b(3) = (  0.922811  0.833080  0.000000 )  


     PseudoPot. # 1 for Ti read from file:
     /data/pseudopotentials/ti_pbe_v1.4.uspp.F.UPF
     MD5 check sum: 88a00a6731bd790ddea75d31a80cb452
     Pseudo is Ultrasoft + core correction, Zval = 12.0
     Generated by new atomic code, or converted to UPF format
     Using radial grid of  851 points,  6 beta functions with: 
                l(1) =   0
                l(2) =   0
                l(3) =   1
                l(4) =   1
                l(5) =   2
                l(6) =   2
     Q(r) pseudized with  6 coefficients,  rinner =    1.000   1.000   1.000
                                                       1.000   1.000

     PseudoPot. # 2 for O  read from file:
     /data/pseudopotentials/O.pbe-n-kjpaw_psl.0.1.UPF
     MD5 check sum: 833c495a5d0f9b75bf046115549bffff
     Pseudo is Projector augmented-wave + core cor, Zval =  6.0
     Generated using &quot;atomic&quot; code by A. Dal Corso  v.6.3
     Shape of augmentation charge: BESSEL
     Using radial grid of 1095 points,  4 beta functions with: 
                l(1) =   0
                l(2) =   0
                l(3) =   1
                l(4) =   1
     Q(r) pseudized with 0 coefficients 


     atomic species   valence    mass     pseudopotential
        Ti            12.00    47.86700     Ti( 1.00)
        O              6.00    15.99900     O ( 1.00)

      2 Sym. Ops., with inversion, found



   Cartesian axes

     site n.     atom                  positions (alat units)
         1           Ti  tau(   1) = (   0.5418208   0.3000915   0.3000832  )
         2           Ti  tau(   2) = (  -0.0000019   0.3000915   0.3001004  )
         3           Ti  tau(   3) = (   0.2709123   0.3000915  -0.3000918  )
         4           Ti  tau(   4) = (   0.2709137  -0.3000918   0.3000913  )
         5           O   tau(   5) = (   0.2712027   0.3000907   0.0661277  )
         6           O   tau(   6) = (   0.5418223   0.5340552  -0.3004381  )
         7           O   tau(   7) = (   0.2706207  -0.3000920   0.6663113  )
         8           O   tau(   8) = (  -0.0000006   0.6663104   0.2997441  )
         9           O   tau(   9) = (   0.5418223  -0.0661283   0.3004388  )
        10           O   tau(  10) = (  -0.0000005   0.0661276   0.9006207  )
        11           O   tau(  11) = (  -0.2706197   0.3000916   0.5340555  )
        12           O   tau(  12) = (   0.2706205   0.3000917   0.5340553  )

     number of k points=   184  Gaussian smearing, width (Ry)=  0.0050

     Number of k-points >= 100: set verbosity='high' to print them.

     Dense  grid:   116515 G-vectors     FFT dimensions: (  72,  72,  72)

     Smooth grid:    41185 G-vectors     FFT dimensions: (  48,  48,  48)

     Estimated max dynamical RAM per process >     181.11 MB

     Estimated total dynamical RAM >       1.41 GB

     Check: negative core charge=   -0.000006

     Initial potential from superposition of free atoms

     starting charge   91.99981, renormalised to   96.00000

     negative rho (up, down):  4.284E-03 0.000E+00
     Starting wfcs are   72 randomized atomic wfcs
     Checking if some PAW data can be deallocated... 

     total cpu time spent up to now is    12255.9 secs

     Self-consistent Calculation

     iteration #  1     ecut=    50.00 Ry     beta= 0.30
     Davidson diagonalization with overlap
     c_bands:  1 eigenvalues not converged
     c_bands:  2 eigenvalues not converged
     c_bands:  1 eigenvalues not converged
     c_bands:  1 eigenvalues not converged
     c_bands:  1 eigenvalues not converged
     c_bands:  1 eigenvalues not converged
     c_bands:  1 eigenvalues not converged
     c_bands:  2 eigenvalues not converged
     c_bands:  2 eigenvalues not converged
     c_bands:  1 eigenvalues not converged
     c_bands:  1 eigenvalues not converged
     c_bands:  1 eigenvalues not converged
     c_bands:  1 eigenvalues not converged
     c_bands:  2 eigenvalues not converged
     c_bands:  2 eigenvalues not converged
     c_bands:  2 eigenvalues not converged
     c_bands:  2 eigenvalues not converged
     c_bands:  2 eigenvalues not converged
     c_bands:  3 eigenvalues not converged
     c_bands:  1 eigenvalues not converged
     c_bands:  4 eigenvalues not converged
     c_bands:  1 eigenvalues not converged
     c_bands:  2 eigenvalues not converged
     c_bands:  1 eigenvalues not converged
     c_bands:  1 eigenvalues not converged
     c_bands:  1 eigenvalues not converged
     ethr =  1.00E-06,  avg # of iterations = 17.5

     negative rho (up, down):  6.225E-03 0.000E+00

     total cpu time spent up to now is    12540.1 secs

     total energy              =    -811.33200923 Ry
     estimated scf accuracy    <       2.47583447 Ry

     iteration #  2     ecut=    50.00 Ry     beta= 0.30
     Davidson diagonalization with overlap
     ethr =  2.58E-03,  avg # of iterations =  3.6

     negative rho (up, down):  5.575E-03 0.000E+00

     total cpu time spent up to now is    12614.0 secs

     total energy              =    -811.82751242 Ry
     estimated scf accuracy    <       0.16567539 Ry

     iteration #  3     ecut=    50.00 Ry     beta= 0.30
     Davidson diagonalization with overlap
     ethr =  1.73E-04,  avg # of iterations =  4.2

     negative rho (up, down):  4.464E-03 0.000E+00

     total cpu time spent up to now is    12695.7 secs

     total energy              =    -811.83948321 Ry
     estimated scf accuracy    <       0.05485705 Ry

     iteration #  4     ecut=    50.00 Ry     beta= 0.30
     Davidson diagonalization with overlap
     ethr =  5.71E-05,  avg # of iterations =  4.2

     negative rho (up, down):  4.613E-03 0.000E+00

     total cpu time spent up to now is    12781.3 secs

     total energy              =    -811.83541022 Ry
     estimated scf accuracy    <       0.04865818 Ry

     iteration #  5     ecut=    50.00 Ry     beta= 0.30
     Davidson diagonalization with overlap
     ethr =  5.07E-05,  avg # of iterations =  4.1

     negative rho (up, down):  4.149E-03 0.000E+00

     total cpu time spent up to now is    12876.5 secs

     total energy              =    -811.84825983 Ry
     estimated scf accuracy    <       0.04716852 Ry

     iteration #  6     ecut=    50.00 Ry     beta= 0.30
     Davidson diagonalization with overlap
     ethr =  4.91E-05,  avg # of iterations =  2.0

     negative rho (up, down):  4.022E-03 0.000E+00

     total cpu time spent up to now is    12941.9 secs

     total energy              =    -811.85099371 Ry
     estimated scf accuracy    <       0.00602646 Ry

     iteration #  7     ecut=    50.00 Ry     beta= 0.30
     Davidson diagonalization with overlap
     ethr =  6.28E-06,  avg # of iterations =  4.3

     negative rho (up, down):  4.034E-03 0.000E+00

     total cpu time spent up to now is    13031.1 secs

     total energy              =    -811.85306811 Ry
     estimated scf accuracy    <       0.00085737 Ry

     iteration #  8     ecut=    50.00 Ry     beta= 0.30
     Davidson diagonalization with overlap
     ethr =  8.93E-07,  avg # of iterations =  1.2

     negative rho (up, down):  4.051E-03 0.000E+00

     total cpu time spent up to now is    13088.3 secs

     total energy              =    -811.85294435 Ry
     estimated scf accuracy    <       0.00039409 Ry

     iteration #  9     ecut=    50.00 Ry     beta= 0.30
     Davidson diagonalization with overlap
     ethr =  4.11E-07,  avg # of iterations =  3.2

     negative rho (up, down):  4.059E-03 0.000E+00

     total cpu time spent up to now is    13162.5 secs

     total energy              =    -811.85304484 Ry
     estimated scf accuracy    <       0.00000966 Ry

     iteration # 10     ecut=    50.00 Ry     beta= 0.30
     Davidson diagonalization with overlap
     ethr =  1.01E-08,  avg # of iterations =  5.0

     negative rho (up, down):  4.056E-03 0.000E+00

     total cpu time spent up to now is    13278.3 secs

     total energy              =    -811.85304185 Ry
     estimated scf accuracy    <       0.00007757 Ry

     iteration # 11     ecut=    50.00 Ry     beta= 0.30
     Davidson diagonalization with overlap
     ethr =  1.01E-08,  avg # of iterations =  3.7

     negative rho (up, down):  4.054E-03 0.000E+00

     total cpu time spent up to now is    13351.1 secs

     total energy              =    -811.85303354 Ry
     estimated scf accuracy    <       0.00002897 Ry

     iteration # 12     ecut=    50.00 Ry     beta= 0.30
     Davidson diagonalization with overlap
     ethr =  1.01E-08,  avg # of iterations =  4.0

     negative rho (up, down):  4.054E-03 0.000E+00

     total cpu time spent up to now is    13450.7 secs

     total energy              =    -811.85304010 Ry
     estimated scf accuracy    <       0.00000175 Ry

     iteration # 13     ecut=    50.00 Ry     beta= 0.30
     Davidson diagonalization with overlap
     ethr =  1.82E-09,  avg # of iterations =  1.0

     negative rho (up, down):  4.055E-03 0.000E+00

     total cpu time spent up to now is    13503.6 secs

     total energy              =    -811.85303999 Ry
     estimated scf accuracy    <       0.00000093 Ry

     iteration # 14     ecut=    50.00 Ry     beta= 0.30
     Davidson diagonalization with overlap
     ethr =  9.72E-10,  avg # of iterations =  2.0

     negative rho (up, down):  4.055E-03 0.000E+00

     total cpu time spent up to now is    13568.9 secs

     total energy              =    -811.85303998 Ry
     estimated scf accuracy    <       0.00000025 Ry

     iteration # 15     ecut=    50.00 Ry     beta= 0.30
     Davidson diagonalization with overlap
     ethr =  2.61E-10,  avg # of iterations =  3.3

     negative rho (up, down):  4.055E-03 0.000E+00

     total cpu time spent up to now is    13639.9 secs

     total energy              =    -811.85304000 Ry
     estimated scf accuracy    <       0.00000002 Ry

     iteration # 16     ecut=    50.00 Ry     beta= 0.30
     Davidson diagonalization with overlap
     ethr =  2.01E-11,  avg # of iterations =  4.6

     negative rho (up, down):  4.055E-03 0.000E+00

     total cpu time spent up to now is    13735.5 secs

     total energy              =    -811.85304001 Ry
     estimated scf accuracy    <       0.00000001 Ry

     iteration # 17     ecut=    50.00 Ry     beta= 0.30
     Davidson diagonalization with overlap
     ethr =  1.36E-11,  avg # of iterations =  1.7

     negative rho (up, down):  4.055E-03 0.000E+00

     total cpu time spent up to now is    13798.8 secs

     total energy              =    -811.85304001 Ry
     estimated scf accuracy    <          2.1E-09 Ry

     iteration # 18     ecut=    50.00 Ry     beta= 0.30
     Davidson diagonalization with overlap
     ethr =  2.17E-12,  avg # of iterations =  4.1

     negative rho (up, down):  4.055E-03 0.000E+00

     total cpu time spent up to now is    13886.2 secs

     total energy              =    -811.85304001 Ry
     estimated scf accuracy    <          9.8E-10 Ry

     iteration # 19     ecut=    50.00 Ry     beta= 0.30
     Davidson diagonalization with overlap
     ethr =  1.02E-12,  avg # of iterations =  1.0

     negative rho (up, down):  4.055E-03 0.000E+00

     total cpu time spent up to now is    13941.1 secs

     total energy              =    -811.85304001 Ry
     estimated scf accuracy    <          2.8E-10 Ry

     iteration # 20     ecut=    50.00 Ry     beta= 0.30
     Davidson diagonalization with overlap
     ethr =  2.88E-13,  avg # of iterations =  3.9

     negative rho (up, down):  4.055E-03 0.000E+00

     total cpu time spent up to now is    14017.0 secs

     End of self-consistent calculation

     Number of k-points >= 100: set verbosity='high' to print the bands.

     the Fermi energy is     9.8024 ev

!    total energy              =    -811.85304001 Ry
     estimated scf accuracy    <          3.4E-13 Ry
     smearing contrib. (-TS)   =      -0.00000000 Ry
     internal energy E=F+TS    =    -811.85304001 Ry

     The total energy is F=E-TS. E is the sum of the following terms:
     one-electron contribution =    -253.82527083 Ry
     hartree contribution      =     173.68261999 Ry
     xc contribution           =    -131.54092568 Ry
     ewald contribution        =    -524.04849080 Ry
     one-center paw contrib.   =     -76.12097269 Ry

     convergence has been achieved in  20 iterations

     negative rho (up, down):  4.055E-03 0.000E+00

     Forces acting on atoms (cartesian axes, Ry/au):

     atom    1 type  1   force =    -0.00000009   -0.00000009   -0.00001130
     atom    2 type  1   force =     0.00000009    0.00000009    0.00001130
     atom    3 type  1   force =     0.00000000    0.00000000    0.00000000
     atom    4 type  1   force =     0.00000000    0.00000000    0.00000000
     atom    5 type  2   force =    -0.00010678    0.00000023    0.00012362
     atom    6 type  2   force =    -0.00000042   -0.00012501    0.00015866
     atom    7 type  2   force =     0.00010713   -0.00000009    0.00012361
     atom    8 type  2   force =     0.00000048    0.00012500    0.00015770
     atom    9 type  2   force =    -0.00000048   -0.00012500   -0.00015770
     atom   10 type  2   force =     0.00000042    0.00012501   -0.00015866
     atom   11 type  2   force =    -0.00010713    0.00000009   -0.00012361
     atom   12 type  2   force =     0.00010678   -0.00000023   -0.00012362

     Total force =     0.000519     Total SCF correction =     0.000000


     Computing stress (Cartesian axis) and pressure


     negative rho (up, down):  4.055E-03 0.000E+00
          total   stress  (Ry/bohr**3)                   (kbar)     P=       -0.02
   0.00000003   0.00000000  -0.00000000            0.00        0.00       -0.00
   0.00000000  -0.00000021   0.00000000            0.00       -0.03        0.00
  -0.00000000   0.00000000  -0.00000021           -0.00        0.00       -0.03


     Writing output data file ./out/O2Ti.save/

     init_run     :     58.59s CPU     59.50s WALL (       2 calls)
     electrons    :  13186.39s CPU  13331.83s WALL (      14 calls)
     update_pot   :     47.73s CPU     47.77s WALL (      12 calls)
     forces       :    241.35s CPU    242.16s WALL (      14 calls)
     stress       :    325.09s CPU    325.79s WALL (      14 calls)

     Called by init_run:
     wfcinit      :     51.48s CPU     52.29s WALL (       2 calls)
     potinit      :      2.31s CPU      2.34s WALL (       2 calls)
     hinit0       :      4.41s CPU      4.43s WALL (       2 calls)

     Called by electrons:
     c_bands      :  12140.83s CPU  12261.24s WALL (     162 calls)
     sum_band     :    994.87s CPU   1017.62s WALL (     162 calls)
     v_of_rho     :     11.14s CPU     11.40s WALL (     167 calls)
     newd         :     23.45s CPU     25.53s WALL (     167 calls)
     PAW_pot      :     19.36s CPU     19.37s WALL (     179 calls)
     mix_rho      :      1.31s CPU      1.35s WALL (     162 calls)

     Called by c_bands:
     init_us_2    :     42.45s CPU     42.68s WALL (   33672 calls)
     cegterg      :  11726.00s CPU  11845.90s WALL (   14904 calls)

     Called by *egterg:
     cdiaghg      :    664.23s CPU    669.94s WALL (   59638 calls)
     h_psi        :   4576.18s CPU   4681.66s WALL (   61754 calls)
     s_psi        :   1250.08s CPU   1250.81s WALL (   61754 calls)
     g_psi        :     15.10s CPU     15.17s WALL (   46666 calls)

     Called by h_psi:
     h_psi:calbec :   1507.52s CPU   1512.37s WALL (   61754 calls)
     vloc_psi     :   1798.03s CPU   1898.03s WALL (   61754 calls)
     add_vuspsi   :   1259.64s CPU   1260.30s WALL (   61754 calls)

     General routines
     calbec       :   2407.23s CPU   2414.14s WALL (   84202 calls)
     fft          :     13.93s CPU     14.30s WALL (    2514 calls)
     ffts         :      0.25s CPU      0.26s WALL (     329 calls)
     fftw         :   1842.80s CPU   1944.84s WALL ( 5393502 calls)
     interpolate  :      0.69s CPU      0.71s WALL (     167 calls)

     Parallel routines
     fft_scatt_xy :    232.82s CPU    245.45s WALL ( 5396345 calls)
     fft_scatt_yz :    712.42s CPU    754.85s WALL ( 5396345 calls)

     PWSCF        :      3h51m CPU      3h54m WALL


   This run was terminated on:   7:30: 0   1Jul2026            

=------------------------------------------------------------------------------=
   JOB DONE.
=------------------------------------------------------------------------------=
Note: The following floating-point exceptions are signalling: IEEE_UNDERFLOW_FLAG IEEE_DENORMAL
Note: The following floating-point exceptions are signalling: IEEE_UNDERFLOW_FLAG IEEE_DENORMAL
Note: The following floating-point exceptions are signalling: IEEE_UNDERFLOW_FLAG IEEE_DENORMAL
Note: The following floating-point exceptions are signalling: IEEE_UNDERFLOW_FLAG IEEE_DENORMAL
Note: The following floating-point exceptions are signalling: IEEE_UNDERFLOW_FLAG IEEE_DENORMAL
Note: The following floating-point exceptions are signalling: IEEE_UNDERFLOW_FLAG IEEE_DENORMAL
Note: The following floating-point exceptions are signalling: IEEE_UNDERFLOW_FLAG IEEE_DENORMAL
Note: The following floating-point exceptions are signalling: IEEE_UNDERFLOW_FLAG IEEE_DENORMAL
