
     Program PWSCF v.6.7MaX starts on  1Jul2026 at 13:13:41 

     This program is part of the open-source Quantum ESPRESSO suite
     for quantum simulation of materials; please cite
         "P. Giannozzi et al., J. Phys.:Condens. Matter 21 395502 (2009);
         "P. Giannozzi et al., J. Phys.:Condens. Matter 29 465901 (2017);
          URL http://www.quantum-espresso.org", 
     in publications or presentations arising from this work. More details at
     http://www.quantum-espresso.org/quote

     Parallel version (MPI), running on     8 processors

     MPI processes distributed on     1 nodes
     K-points division:     npool     =       2
     R & G space division:  proc/nbgrp/npool/nimage =       4
     Waiting for input...
     Reading input from standard input
Warning: card &CELL ignored
Warning: card / ignored

     Current dimensions of program PWSCF are:
     Max number of different atomic species (ntypx) = 10
     Max number of k-points (npk) =  40000
     Max angular momentum in pseudopotentials (lmaxx) =  3
     file O.pbe-n-kjpaw_psl.0.1.UPF: wavefunction(s)  2P renormalized

     Subspace diagonalization in iterative solution of the eigenvalue problem:
     one sub-group per band group will be used
     scalapack distributed-memory algorithm (size of sub-group:  2*  2 procs)


     Parallelization info
     --------------------
     sticks:   dense  smooth     PW     G-vecs:    dense   smooth      PW
     Min         810     407    129                28543    10102    1813
     Max         811     409    130                28546    10103    1814
     Sum        3243    1631    519               114179    40409    7255



     bravais-lattice index     =            0
     lattice parameter (alat)  =      10.3359  a.u.
     unit-cell volume          =     845.0606 (a.u.)^3
     number of atoms/cell      =           12
     number of atomic types    =            2
     number of electrons       =        96.00
     number of Kohn-Sham states=           48
     kinetic-energy cutoff     =      50.0000  Ry
     charge density cutoff     =     400.0000  Ry
     scf convergence threshold =      1.0E-10
     mixing beta               =       0.3000
     number of iterations used =            8  plain     mixing
     Exchange-correlation= SLA  PW   PBX  PBC
                           (   1   4   3   4   0   0   0)

     celldm(1)=  10.335861  celldm(2)=   0.000000  celldm(3)=   0.000000
     celldm(4)=   0.000000  celldm(5)=   0.000000  celldm(6)=   0.000000

     crystal axes: (cart. coord. in units of alat)
               a(1) = (  -0.541040   0.594693   0.594656 )  
               a(2) = (   0.541039  -0.594694   0.594657 )  
               a(3) = (   0.541039   0.594694  -0.594657 )  

     reciprocal axes: (cart. coord. in units 2 pi/alat)
               b(1) = (  0.000001  0.840770  0.840822 )  
               b(2) = (  0.924148  0.000001  0.840822 )  
               b(3) = (  0.924148  0.840770  0.000001 )  


     PseudoPot. # 1 for Ti read from file:
     /data/pseudopotentials/ti_pbe_v1.4.uspp.F.UPF
     MD5 check sum: 88a00a6731bd790ddea75d31a80cb452
     Pseudo is Ultrasoft + core correction, Zval = 12.0
     Generated by new atomic code, or converted to UPF format
     Using radial grid of  851 points,  6 beta functions with: 
                l(1) =   0
                l(2) =   0
                l(3) =   1
                l(4) =   1
                l(5) =   2
                l(6) =   2
     Q(r) pseudized with  6 coefficients,  rinner =    1.000   1.000   1.000
                                                       1.000   1.000

     PseudoPot. # 2 for O  read from file:
     /data/pseudopotentials/O.pbe-n-kjpaw_psl.0.1.UPF
     MD5 check sum: 833c495a5d0f9b75bf046115549bffff
     Pseudo is Projector augmented-wave + core cor, Zval =  6.0
     Generated using &quot;atomic&quot; code by A. Dal Corso  v.6.3
     Shape of augmentation charge: BESSEL
     Using radial grid of 1095 points,  4 beta functions with: 
                l(1) =   0
                l(2) =   0
                l(3) =   1
                l(4) =   1
     Q(r) pseudized with 0 coefficients 


     atomic species   valence    mass     pseudopotential
        Ti            12.00    47.86700     Ti( 1.00)
        O              6.00    15.99900     O ( 1.00)

     No symmetry found



   Cartesian axes

     site n.     atom                  positions (alat units)
         1           Ti  tau(   1) = (   0.5410334   0.2973465   0.2973250  )
         2           Ti  tau(   2) = (   0.0000012   0.2973466   0.2973312  )
         3           Ti  tau(   3) = (   0.2705205   0.2973468  -0.2973287  )
         4           Ti  tau(   4) = (   0.2705218  -0.2973474   0.2973279  )
         5           O   tau(   5) = (   0.2708477   0.2973456   0.0646049  )
         6           O   tau(   6) = (   0.5410389   0.5300634  -0.2978271  )
         7           O   tau(   7) = (   0.2701917  -0.2973477   0.6592611  )
         8           O   tau(   8) = (  -0.0000003   0.6593233   0.2968288  )
         9           O   tau(   9) = (   0.5410376  -0.0646311   0.2978267  )
        10           O   tau(  10) = (  -0.0000015   0.0646295   0.8924823  )
        11           O   tau(  11) = (  -0.2701913   0.2973466   0.5300522  )
        12           O   tau(  12) = (   0.2701912   0.2973469   0.5300507  )

     number of k points=   184

     Number of k-points >= 100: set verbosity='high' to print them.

     Dense  grid:   114179 G-vectors     FFT dimensions: (  72,  72,  72)

     Smooth grid:    40409 G-vectors     FFT dimensions: (  48,  48,  48)

     Estimated max dynamical RAM per process >     156.28 MB

     Estimated total dynamical RAM >       1.22 GB

     Check: negative core charge=   -0.000007

     Initial potential from superposition of free atoms

     starting charge   91.99981, renormalised to   96.00000

     negative rho (up, down):  4.383E-03 0.000E+00
     Starting wfcs are   72 randomized atomic wfcs
     Checking if some PAW data can be deallocated... 

     total cpu time spent up to now is       15.5 secs

     Self-consistent Calculation

     iteration #  1     ecut=    50.00 Ry     beta= 0.30
     Davidson diagonalization with overlap
     ethr =  1.00E-02,  avg # of iterations =  2.0

     negative rho (up, down):  6.383E-03 0.000E+00

     total cpu time spent up to now is       44.1 secs

     total energy              =    -811.19758338 Ry
     estimated scf accuracy    <       2.70705657 Ry

     iteration #  2     ecut=    50.00 Ry     beta= 0.30
     Davidson diagonalization with overlap
     ethr =  2.82E-03,  avg # of iterations =  4.0

     negative rho (up, down):  5.847E-03 0.000E+00

     total cpu time spent up to now is       79.8 secs

     total energy              =    -811.81215417 Ry
     estimated scf accuracy    <       0.14292056 Ry

     iteration #  3     ecut=    50.00 Ry     beta= 0.30
     Davidson diagonalization with overlap
     ethr =  1.49E-04,  avg # of iterations =  4.5

     negative rho (up, down):  4.188E-03 0.000E+00

     total cpu time spent up to now is      119.9 secs

     total energy              =    -811.78504061 Ry
     estimated scf accuracy    <       0.14766819 Ry

     iteration #  4     ecut=    50.00 Ry     beta= 0.30
     Davidson diagonalization with overlap
     ethr =  1.49E-04,  avg # of iterations =  5.0

     negative rho (up, down):  4.492E-03 0.000E+00

     total cpu time spent up to now is      172.1 secs

     total energy              =    -811.79735880 Ry
     estimated scf accuracy    <       0.36715360 Ry

     iteration #  5     ecut=    50.00 Ry     beta= 0.30
     Davidson diagonalization with overlap
     ethr =  1.49E-04,  avg # of iterations =  4.0

     negative rho (up, down):  4.554E-03 0.000E+00

     total cpu time spent up to now is      214.6 secs

     total energy              =    -811.84801452 Ry
     estimated scf accuracy    <       0.00360998 Ry

     iteration #  6     ecut=    50.00 Ry     beta= 0.30
     Davidson diagonalization with overlap
     ethr =  3.76E-06,  avg # of iterations =  5.6

     negative rho (up, down):  4.184E-03 0.000E+00

     total cpu time spent up to now is      270.6 secs

     total energy              =    -811.84898160 Ry
     estimated scf accuracy    <       0.01578249 Ry

     iteration #  7     ecut=    50.00 Ry     beta= 0.30
     Davidson diagonalization with overlap
     ethr =  3.76E-06,  avg # of iterations =  5.0

     negative rho (up, down):  4.150E-03 0.000E+00

     total cpu time spent up to now is      319.4 secs

     total energy              =    -811.84997591 Ry
     estimated scf accuracy    <       0.00096499 Ry

     iteration #  8     ecut=    50.00 Ry     beta= 0.30
     Davidson diagonalization with overlap
     ethr =  1.01E-06,  avg # of iterations =  5.0

     negative rho (up, down):  4.186E-03 0.000E+00

     total cpu time spent up to now is      373.8 secs

     total energy              =    -811.85038539 Ry
     estimated scf accuracy    <       0.00237069 Ry

     iteration #  9     ecut=    50.00 Ry     beta= 0.30
     Davidson diagonalization with overlap
     ethr =  1.01E-06,  avg # of iterations =  3.9

     negative rho (up, down):  4.201E-03 0.000E+00

     total cpu time spent up to now is      406.8 secs

     total energy              =    -811.85042807 Ry
     estimated scf accuracy    <       0.00051179 Ry

     iteration # 10     ecut=    50.00 Ry     beta= 0.30
     Davidson diagonalization with overlap
     ethr =  5.33E-07,  avg # of iterations =  4.1

     negative rho (up, down):  4.205E-03 0.000E+00

     total cpu time spent up to now is      442.4 secs

     total energy              =    -811.85050883 Ry
     estimated scf accuracy    <       0.00002633 Ry

     iteration # 11     ecut=    50.00 Ry     beta= 0.30
     Davidson diagonalization with overlap
     ethr =  2.74E-08,  avg # of iterations =  4.8

     negative rho (up, down):  4.205E-03 0.000E+00

     total cpu time spent up to now is      485.9 secs

     total energy              =    -811.85052661 Ry
     estimated scf accuracy    <       0.00000329 Ry

     iteration # 12     ecut=    50.00 Ry     beta= 0.30
     Davidson diagonalization with overlap
     ethr =  3.43E-09,  avg # of iterations =  2.3

     negative rho (up, down):  4.202E-03 0.000E+00

     total cpu time spent up to now is      526.7 secs

     total energy              =    -811.85052552 Ry
     estimated scf accuracy    <       0.00000241 Ry

     iteration # 13     ecut=    50.00 Ry     beta= 0.30
     Davidson diagonalization with overlap
     ethr =  2.52E-09,  avg # of iterations =  4.6

     negative rho (up, down):  4.204E-03 0.000E+00

     total cpu time spent up to now is      720.5 secs

     total energy              =    -811.85052638 Ry
     estimated scf accuracy    <       0.00000058 Ry

     iteration # 14     ecut=    50.00 Ry     beta= 0.30
     Davidson diagonalization with overlap
     ethr =  6.07E-10,  avg # of iterations =  2.0

     negative rho (up, down):  4.204E-03 0.000E+00

     total cpu time spent up to now is      846.3 secs

     total energy              =    -811.85052640 Ry
     estimated scf accuracy    <       0.00000028 Ry

     iteration # 15     ecut=    50.00 Ry     beta= 0.30
     Davidson diagonalization with overlap
     ethr =  2.87E-10,  avg # of iterations =  2.0

     negative rho (up, down):  4.205E-03 0.000E+00

     total cpu time spent up to now is      973.4 secs

     total energy              =    -811.85052631 Ry
     estimated scf accuracy    <       0.00000019 Ry

     iteration # 16     ecut=    50.00 Ry     beta= 0.30
     Davidson diagonalization with overlap
     ethr =  2.02E-10,  avg # of iterations =  4.5

     negative rho (up, down):  4.205E-03 0.000E+00

     total cpu time spent up to now is     1177.5 secs

     total energy              =    -811.85052641 Ry
     estimated scf accuracy    <       0.00000008 Ry

     iteration # 17     ecut=    50.00 Ry     beta= 0.30
     Davidson diagonalization with overlap
     ethr =  8.46E-11,  avg # of iterations =  1.6

     negative rho (up, down):  4.205E-03 0.000E+00

     total cpu time spent up to now is     1298.8 secs

     total energy              =    -811.85052639 Ry
     estimated scf accuracy    <       0.00000009 Ry

     iteration # 18     ecut=    50.00 Ry     beta= 0.30
     Davidson diagonalization with overlap
     ethr =  8.46E-11,  avg # of iterations =  1.0

     negative rho (up, down):  4.205E-03 0.000E+00

     total cpu time spent up to now is     1406.4 secs

     total energy              =    -811.85052639 Ry
     estimated scf accuracy    <       0.00000006 Ry

     iteration # 19     ecut=    50.00 Ry     beta= 0.30
     Davidson diagonalization with overlap
     ethr =  5.90E-11,  avg # of iterations =  1.0

     negative rho (up, down):  4.204E-03 0.000E+00

     total cpu time spent up to now is     1510.0 secs

     total energy              =    -811.85052638 Ry
     estimated scf accuracy    <       0.00000006 Ry

     iteration # 20     ecut=    50.00 Ry     beta= 0.30
     Davidson diagonalization with overlap
     ethr =  5.90E-11,  avg # of iterations =  3.3

     negative rho (up, down):  4.204E-03 0.000E+00

     total cpu time spent up to now is     1649.8 secs

     total energy              =    -811.85052638 Ry
     estimated scf accuracy    <          8.1E-09 Ry

     iteration # 21     ecut=    50.00 Ry     beta= 0.30
     Davidson diagonalization with overlap
     ethr =  8.43E-12,  avg # of iterations =  4.1

     negative rho (up, down):  4.204E-03 0.000E+00

     total cpu time spent up to now is     1845.2 secs

     total energy              =    -811.85052639 Ry
     estimated scf accuracy    <          1.9E-09 Ry

     iteration # 22     ecut=    50.00 Ry     beta= 0.30
     Davidson diagonalization with overlap
     ethr =  2.01E-12,  avg # of iterations =  4.6

     negative rho (up, down):  4.204E-03 0.000E+00

     total cpu time spent up to now is     2037.3 secs

     total energy              =    -811.85052639 Ry
     estimated scf accuracy    <          5.1E-10 Ry

     iteration # 23     ecut=    50.00 Ry     beta= 0.30
     Davidson diagonalization with overlap
     ethr =  5.27E-13,  avg # of iterations =  2.0

     negative rho (up, down):  4.204E-03 0.000E+00

     total cpu time spent up to now is     2161.9 secs

     total energy              =    -811.85052639 Ry
     estimated scf accuracy    <          3.5E-10 Ry

     iteration # 24     ecut=    50.00 Ry     beta= 0.30
     Davidson diagonalization with overlap
     ethr =  3.69E-13,  avg # of iterations =  5.3

     negative rho (up, down):  4.204E-03 0.000E+00

     total cpu time spent up to now is     2396.1 secs

     total energy              =    -811.85052639 Ry
     estimated scf accuracy    <          5.4E-09 Ry

     iteration # 25     ecut=    50.00 Ry     beta= 0.30
     Davidson diagonalization with overlap
     ethr =  3.69E-13,  avg # of iterations =  3.8

     negative rho (up, down):  4.204E-03 0.000E+00

     total cpu time spent up to now is     2546.4 secs

     total energy              =    -811.85052639 Ry
     estimated scf accuracy    <          3.0E-09 Ry

     iteration # 26     ecut=    50.00 Ry     beta= 0.30
     Davidson diagonalization with overlap
     ethr =  3.69E-13,  avg # of iterations =  4.6

     negative rho (up, down):  4.204E-03 0.000E+00

     total cpu time spent up to now is     2716.9 secs

     total energy              =    -811.85052639 Ry
     estimated scf accuracy    <          9.6E-10 Ry

     iteration # 27     ecut=    50.00 Ry     beta= 0.30
     Davidson diagonalization with overlap
     ethr =  3.69E-13,  avg # of iterations =  3.3

     negative rho (up, down):  4.204E-03 0.000E+00

     total cpu time spent up to now is     2852.5 secs

     total energy              =    -811.85052639 Ry
     estimated scf accuracy    <          3.3E-10 Ry

     iteration # 28     ecut=    50.00 Ry     beta= 0.30
     Davidson diagonalization with overlap
     ethr =  3.47E-13,  avg # of iterations =  2.5

     negative rho (up, down):  4.204E-03 0.000E+00

     total cpu time spent up to now is     2980.5 secs

     End of self-consistent calculation

     Number of k-points >= 100: set verbosity='high' to print the bands.

     highest occupied level (ev):     9.1160

!    total energy              =    -811.85052639 Ry
     estimated scf accuracy    <          9.8E-11 Ry

     The total energy is the sum of the following terms:
     one-electron contribution =    -247.46885036 Ry
     hartree contribution      =     171.59839617 Ry
     xc contribution           =    -131.68955171 Ry
     ewald contribution        =    -528.17313703 Ry
     one-center paw contrib.   =     -76.11738345 Ry

     convergence has been achieved in  28 iterations

     negative rho (up, down):  4.204E-03 0.000E+00

     Forces acting on atoms (cartesian axes, Ry/au):

     atom    1 type  1   force =     0.00002918   -0.00000114    0.00004573
     atom    2 type  1   force =    -0.00002867   -0.00000065   -0.00004944
     atom    3 type  1   force =     0.00000580    0.00000120    0.00000086
     atom    4 type  1   force =    -0.00000632    0.00000123    0.00000183
     atom    5 type  2   force =    -0.00001790    0.00000068    0.00022118
     atom    6 type  2   force =    -0.00000386   -0.00005095    0.00029801
     atom    7 type  2   force =     0.00001557   -0.00000017    0.00023011
     atom    8 type  2   force =    -0.00000431    0.00005048    0.00029741
     atom    9 type  2   force =     0.00000623   -0.00004840   -0.00029720
     atom   10 type  2   force =     0.00000533    0.00004823   -0.00029746
     atom   11 type  2   force =    -0.00001945   -0.00000006   -0.00023030
     atom   12 type  2   force =     0.00001841   -0.00000046   -0.00022072

     Total force =     0.000758     Total SCF correction =     0.000006


     Computing stress (Cartesian axis) and pressure


     negative rho (up, down):  4.204E-03 0.000E+00
          total   stress  (Ry/bohr**3)                   (kbar)     P=       41.21
   0.00024279   0.00000001   0.00000001           35.72        0.00        0.00
   0.00000001   0.00029776   0.00000001            0.00       43.80        0.00
   0.00000001   0.00000001   0.00029987            0.00        0.00       44.11


     Writing output data file ./out/O2Ti.save/

     init_run     :     14.87s CPU     15.27s WALL (       1 calls)
     electrons    :   2432.44s CPU   2965.10s WALL (       1 calls)
     forces       :     20.79s CPU     26.40s WALL (       1 calls)
     stress       :     26.53s CPU     30.41s WALL (       1 calls)

     Called by init_run:
     wfcinit      :     12.87s CPU     13.25s WALL (       1 calls)
     potinit      :      0.65s CPU      0.66s WALL (       1 calls)
     hinit0       :      1.18s CPU      1.18s WALL (       1 calls)

     Called by electrons:
     c_bands      :   2230.99s CPU   2715.08s WALL (      28 calls)
     sum_band     :    190.66s CPU    236.71s WALL (      28 calls)
     v_of_rho     :      2.31s CPU      2.79s WALL (      29 calls)
     newd         :      4.54s CPU      5.78s WALL (      29 calls)
     PAW_pot      :      3.35s CPU      3.98s WALL (      29 calls)
     mix_rho      :      0.37s CPU      0.44s WALL (      28 calls)

     Called by c_bands:
     init_us_2    :      6.60s CPU      7.69s WALL (    5428 calls)
     cegterg      :   1963.33s CPU   2394.22s WALL (    2576 calls)

     Called by *egterg:
     cdiaghg      :    141.12s CPU    179.72s WALL (   11879 calls)
     h_psi        :    872.52s CPU   1088.93s WALL (   11971 calls)
     s_psi        :    179.34s CPU    214.40s WALL (   11971 calls)
     g_psi        :      2.35s CPU      3.10s WALL (    9303 calls)

     Called by h_psi:
     h_psi:calbec :    232.06s CPU    275.89s WALL (   11971 calls)
     vloc_psi     :    458.35s CPU    589.86s WALL (   11971 calls)
     add_vuspsi   :    180.43s CPU    221.21s WALL (   11971 calls)

     General routines
     calbec       :    340.77s CPU    405.06s WALL (   15007 calls)
     fft          :      2.29s CPU      2.67s WALL (     400 calls)
     ffts         :      0.09s CPU      0.12s WALL (      57 calls)
     fftw         :    496.71s CPU    642.24s WALL (  843108 calls)
     interpolate  :      0.12s CPU      0.17s WALL (      29 calls)

     Parallel routines
     fft_scatt_xy :     34.94s CPU     42.41s WALL (  843565 calls)
     fft_scatt_yz :    323.74s CPU    429.54s WALL (  843565 calls)

     PWSCF        :  41m36.34s CPU  50m39.47s WALL


   This run was terminated on:  14: 4:21   1Jul2026            

=------------------------------------------------------------------------------=
   JOB DONE.
=------------------------------------------------------------------------------=
