
     Program PWSCF v.6.7MaX starts on  3Jul2026 at  2:51: 6 

     This program is part of the open-source Quantum ESPRESSO suite
     for quantum simulation of materials; please cite
         "P. Giannozzi et al., J. Phys.:Condens. Matter 21 395502 (2009);
         "P. Giannozzi et al., J. Phys.:Condens. Matter 29 465901 (2017);
          URL http://www.quantum-espresso.org", 
     in publications or presentations arising from this work. More details at
     http://www.quantum-espresso.org/quote

     Parallel version (MPI), running on     8 processors

     MPI processes distributed on     1 nodes
     K-points division:     npool     =       2
     R & G space division:  proc/nbgrp/npool/nimage =       4
     Waiting for input...
     Reading input from standard input

     Current dimensions of program PWSCF are:
     Max number of different atomic species (ntypx) = 10
     Max number of k-points (npk) =  40000
     Max angular momentum in pseudopotentials (lmaxx) =  3
     file C.pbe-n-kjpaw_psl.1.0.0.UPF: wavefunction(s)  2S 2P renormalized
     file O.pbe-n-kjpaw_psl.0.1.UPF: wavefunction(s)  2P renormalized

     Subspace diagonalization in iterative solution of the eigenvalue problem:
     one sub-group per band group will be used
     scalapack distributed-memory algorithm (size of sub-group:  2*  2 procs)

     Message from routine setup:
     using ibrav=0 with symmetry is DISCOURAGED, use correct ibrav instead

     Parallelization info
     --------------------
     sticks:   dense  smooth     PW     G-vecs:    dense   smooth      PW
     Min         675     335    100                21068     7439    1210
     Max         676     336    101                21069     7442    1211
     Sum        2703    1341    401                84275    29761    4841



     bravais-lattice index     =            0
     lattice parameter (alat)  =      10.6572  a.u.
     unit-cell volume          =     624.6062 (a.u.)^3
     number of atoms/cell      =           10
     number of atomic types    =            3
     number of electrons       =        64.00
     number of Kohn-Sham states=           38
     kinetic-energy cutoff     =      50.0000  Ry
     charge density cutoff     =     400.0000  Ry
     scf convergence threshold =      1.0E-08
     mixing beta               =       0.3000
     number of iterations used =            8  plain     mixing
     energy convergence thresh.=      1.0E-05
     force convergence thresh. =      1.0E-04
     press convergence thresh. =      5.0E-01
     Exchange-correlation= SLA  PW   PBX  PBC
                           (   1   4   3   4   0   0   0)
     nstep                     =           50


     celldm(1)=  10.657199  celldm(2)=   0.000000  celldm(3)=   0.000000
     celldm(4)=   0.000000  celldm(5)=   0.000000  celldm(6)=   0.000000

     crystal axes: (cart. coord. in units of alat)
               a(1) = (   0.911324  -0.411452  -0.014010 )  
               a(2) = (   0.911324   0.411452  -0.014010 )  
               a(3) = (   0.736178  -0.000000   0.676789 )  

     reciprocal axes: (cart. coord. in units 2 pi/alat)
               b(1) = (  0.539629 -1.215208 -0.586982 )  
               b(2) = (  0.539629  1.215208 -0.586982 )  
               b(3) = (  0.022341  0.000000  1.453265 )  


     PseudoPot. # 1 for Mg read from file:
     /data/pseudopotentials/mg_pbe_v1.4.uspp.F.UPF
     MD5 check sum: 8ffbd8f729fef71095aac5bd8316fb1f
     Pseudo is Ultrasoft, Zval = 10.0
     Generated by new atomic code, or converted to UPF format
     Using radial grid of  821 points,  7 beta functions with: 
                l(1) =   0
                l(2) =   0
                l(3) =   0
                l(4) =   1
                l(5) =   1
                l(6) =   2
                l(7) =   2
     Q(r) pseudized with  8 coefficients,  rinner =    1.200   1.200   1.200
                                                       1.200   1.200

     PseudoPot. # 2 for C  read from file:
     /data/pseudopotentials/C.pbe-n-kjpaw_psl.1.0.0.UPF
     MD5 check sum: 5f16ad9a65e90284d1d834d4ab3b0f7d
     Pseudo is Projector augmented-wave + core cor, Zval =  4.0
     Generated using &quot;atomic&quot; code by A. Dal Corso  v.6.3
     Shape of augmentation charge: PSQ
     Using radial grid of 1073 points,  4 beta functions with: 
                l(1) =   0
                l(2) =   0
                l(3) =   1
                l(4) =   1
     Q(r) pseudized with 0 coefficients 


     PseudoPot. # 3 for O  read from file:
     /data/pseudopotentials/O.pbe-n-kjpaw_psl.0.1.UPF
     MD5 check sum: 833c495a5d0f9b75bf046115549bffff
     Pseudo is Projector augmented-wave + core cor, Zval =  6.0
     Generated using &quot;atomic&quot; code by A. Dal Corso  v.6.3
     Shape of augmentation charge: BESSEL
     Using radial grid of 1095 points,  4 beta functions with: 
                l(1) =   0
                l(2) =   0
                l(3) =   1
                l(4) =   1
     Q(r) pseudized with 0 coefficients 


     atomic species   valence    mass     pseudopotential
        Mg            10.00    24.30500     Mg( 1.00)
        C              4.00    12.01100     C ( 1.00)
        O              6.00    15.99900     O ( 1.00)

      4 Sym. Ops., with inversion, found ( 2 have fractional translation)



   Cartesian axes

     site n.     atom                  positions (alat units)
         1           Mg  tau(   1) = (   1.2794125   0.0000000   0.3243847  )
         2           Mg  tau(   2) = (   0.0000000   0.0000000   0.0000000  )
         3           C   tau(   3) = (   1.9191187   0.0000000   0.4865770  )
         4           C   tau(   4) = (   0.6397062   0.0000000   0.1621923  )
         5           O   tau(   5) = (   1.0564299   0.2971994   0.3087647  )
         6           O   tau(   6) = (   1.0077950  -0.1829467   0.5005867  )
         7           O   tau(   7) = (   1.4245187   0.1142527   0.6471590  )
         8           O   tau(   8) = (   1.5023951  -0.2971994   0.3400047  )
         9           O   tau(   9) = (   1.5510300   0.1829467   0.1481827  )
        10           O   tau(  10) = (   1.1343063  -0.1142527   0.0016104  )

     number of k points=    24  Gaussian smearing, width (Ry)=  0.0050
                       cart. coord. in units 2pi/alat
        k(    1) = (   0.0000000   0.0000000   0.0000000), wk =   0.0312500
        k(    2) = (   0.0055852   0.0000000   0.3633162), wk =   0.0625000
        k(    3) = (  -0.0111704   0.0000000  -0.7266325), wk =   0.0312500
        k(    4) = (   0.1349072   0.3038021  -0.1467455), wk =   0.1250000
        k(    5) = (   0.1404924   0.3038021   0.2165708), wk =   0.1250000
        k(    6) = (   0.1237368   0.3038021  -0.8733780), wk =   0.1250000
        k(    7) = (   0.1293220   0.3038021  -0.5100617), wk =   0.1250000
        k(    8) = (  -0.2698144  -0.6076042   0.2934909), wk =   0.0625000
        k(    9) = (  -0.2642292  -0.6076042   0.6568072), wk =   0.1250000
        k(   10) = (  -0.2809848  -0.6076042  -0.4331415), wk =   0.0625000
        k(   11) = (   0.2698144   0.0000000  -0.2934909), wk =   0.0625000
        k(   12) = (   0.2753996   0.0000000   0.0698253), wk =   0.0625000
        k(   13) = (   0.2586440   0.0000000  -1.0201234), wk =   0.0625000
        k(   14) = (   0.2642292   0.0000000  -0.6568072), wk =   0.0625000
        k(   15) = (  -0.1349072  -0.9114063   0.1467455), wk =   0.1250000
        k(   16) = (  -0.1293220  -0.9114063   0.5100617), wk =   0.1250000
        k(   17) = (  -0.1460776  -0.9114063  -0.5798870), wk =   0.1250000
        k(   18) = (  -0.1404924  -0.9114063  -0.2165708), wk =   0.1250000
        k(   19) = (   0.0000000  -0.6076042   0.0000000), wk =   0.0625000
        k(   20) = (   0.0055852  -0.6076042   0.3633162), wk =   0.1250000
        k(   21) = (  -0.0111704  -0.6076042  -0.7266325), wk =   0.0625000
        k(   22) = (  -0.5396289   0.0000000   0.5869819), wk =   0.0312500
        k(   23) = (  -0.5340437   0.0000000   0.9502981), wk =   0.0625000
        k(   24) = (  -0.5507993   0.0000000  -0.1396506), wk =   0.0312500

     Dense  grid:    84275 G-vectors     FFT dimensions: (  72,  72,  72)

     Smooth grid:    29761 G-vectors     FFT dimensions: (  48,  48,  48)

     Estimated max dynamical RAM per process >      73.38 MB

     Estimated total dynamical RAM >     587.02 MB

     Check: negative core charge=   -0.000004

     Initial potential from superposition of free atoms

     starting charge   63.39945, renormalised to   64.00000
     Starting wfcs are   42 randomized atomic wfcs
     Checking if some PAW data can be deallocated... 

     total cpu time spent up to now is        5.9 secs

     Self-consistent Calculation

     iteration #  1     ecut=    50.00 Ry     beta= 0.30
     Davidson diagonalization with overlap
     ethr =  1.00E-02,  avg # of iterations =  4.6

     total cpu time spent up to now is       11.6 secs

     total energy              =    -537.98749736 Ry
     estimated scf accuracy    <       1.36739754 Ry

     iteration #  2     ecut=    50.00 Ry     beta= 0.30
     Davidson diagonalization with overlap
     ethr =  2.14E-03,  avg # of iterations =  2.0

     total cpu time spent up to now is       16.3 secs

     total energy              =    -538.14463822 Ry
     estimated scf accuracy    <       0.12836289 Ry

     iteration #  3     ecut=    50.00 Ry     beta= 0.30
     Davidson diagonalization with overlap
     ethr =  2.01E-04,  avg # of iterations =  2.0

     total cpu time spent up to now is       21.0 secs

     total energy              =    -538.15466418 Ry
     estimated scf accuracy    <       0.03301727 Ry

     iteration #  4     ecut=    50.00 Ry     beta= 0.30
     Davidson diagonalization with overlap
     ethr =  5.16E-05,  avg # of iterations =  4.8

     total cpu time spent up to now is       25.4 secs

     total energy              =    -538.15635780 Ry
     estimated scf accuracy    <       0.00376174 Ry

     iteration #  5     ecut=    50.00 Ry     beta= 0.30
     Davidson diagonalization with overlap
     ethr =  5.88E-06,  avg # of iterations =  4.4

     total cpu time spent up to now is       29.9 secs

     total energy              =    -538.15654208 Ry
     estimated scf accuracy    <       0.00014960 Ry

     iteration #  6     ecut=    50.00 Ry     beta= 0.30
     Davidson diagonalization with overlap
     ethr =  2.34E-07,  avg # of iterations =  2.9

     total cpu time spent up to now is       35.1 secs

     total energy              =    -538.15657140 Ry
     estimated scf accuracy    <       0.00002780 Ry

     iteration #  7     ecut=    50.00 Ry     beta= 0.30
     Davidson diagonalization with overlap
     ethr =  4.34E-08,  avg # of iterations =  3.0

     total cpu time spent up to now is       40.1 secs

     total energy              =    -538.15657433 Ry
     estimated scf accuracy    <       0.00003898 Ry

     iteration #  8     ecut=    50.00 Ry     beta= 0.30
     Davidson diagonalization with overlap
     ethr =  4.34E-08,  avg # of iterations =  2.0

     total cpu time spent up to now is       44.8 secs

     total energy              =    -538.15657884 Ry
     estimated scf accuracy    <       0.00000200 Ry

     iteration #  9     ecut=    50.00 Ry     beta= 0.30
     Davidson diagonalization with overlap
     ethr =  3.13E-09,  avg # of iterations =  3.6

     total cpu time spent up to now is       50.1 secs

     total energy              =    -538.15657960 Ry
     estimated scf accuracy    <       0.00000014 Ry

     iteration # 10     ecut=    50.00 Ry     beta= 0.30
     Davidson diagonalization with overlap
     ethr =  2.21E-10,  avg # of iterations =  2.0

     total cpu time spent up to now is       55.2 secs

     total energy              =    -538.15657967 Ry
     estimated scf accuracy    <       0.00000013 Ry

     iteration # 11     ecut=    50.00 Ry     beta= 0.30
     Davidson diagonalization with overlap
     ethr =  2.01E-10,  avg # of iterations =  1.8

     total cpu time spent up to now is       59.3 secs

     total energy              =    -538.15657970 Ry
     estimated scf accuracy    <       0.00000003 Ry

     iteration # 12     ecut=    50.00 Ry     beta= 0.30
     Davidson diagonalization with overlap
     ethr =  4.97E-11,  avg # of iterations =  2.0

     total cpu time spent up to now is       64.0 secs

     End of self-consistent calculation

          k = 0.0000 0.0000 0.0000 (  3657 PWs)   bands (ev):

   -67.2491 -67.2486 -34.0380 -34.0380 -34.0341 -34.0341 -34.0081 -34.0004
   -16.5945 -16.0245 -13.0897 -13.0897 -12.9043 -12.9043  -2.9476  -2.8053
    -1.5614  -0.9979  -0.9978  -0.6067  -0.6067   1.0013   3.5875   3.5875
     3.6011   3.6011   3.7465   4.0191   4.0192   4.5602   5.0353   5.0353
    10.8637  11.3455  11.8051  16.1974  18.1378  18.4991

          k = 0.0056 0.0000 0.3633 (  3734 PWs)   bands (ev):

   -67.2490 -67.2487 -34.0377 -34.0375 -34.0349 -34.0348 -34.0070 -34.0015
   -16.4575 -16.0497 -13.1631 -13.0935 -13.0410 -12.9686  -2.6501  -2.5545
    -1.2963  -0.9799  -0.7969  -0.7051  -0.3974   0.7172   2.9089   3.0215
     3.4396   3.6874   3.7954   3.8204   4.3168   4.6216   4.9912   4.9961
    10.9827  11.3283  12.8134  16.6968  16.7203  16.8441

          k =-0.0112 0.0000-0.7266 (  3720 PWs)   bands (ev):

   -67.2488 -67.2488 -34.0365 -34.0365 -34.0362 -34.0362 -34.0042 -34.0042
   -16.1940 -16.1940 -13.2125 -13.2125 -13.0621 -13.0621  -2.3178  -2.3178
    -0.9576  -0.9576  -0.4635  -0.4635  -0.0829  -0.0829   2.4021   2.4021
     3.1522   3.1522   3.9518   3.9518   4.3738   4.3738   5.3317   5.3317
    11.2302  11.2302  14.6915  14.6915  16.1602  16.1602

          k = 0.1349 0.3038-0.1467 (  3734 PWs)   bands (ev):

   -67.2490 -67.2487 -34.0377 -34.0375 -34.0349 -34.0348 -34.0070 -34.0015
   -16.4575 -16.0497 -13.1631 -13.0935 -13.0410 -12.9686  -2.6501  -2.5545
    -1.2963  -0.9799  -0.7969  -0.7051  -0.3974   0.7172   2.9089   3.0215
     3.4396   3.6874   3.7954   3.8204   4.3168   4.6216   4.9912   4.9961
    10.9827  11.3283  12.8134  16.6968  16.7203  16.8441

          k = 0.1405 0.3038 0.2166 (  3721 PWs)   bands (ev):

   -67.2490 -67.2487 -34.0385 -34.0367 -34.0361 -34.0339 -34.0067 -34.0015
   -16.4408 -16.0632 -13.1475 -13.1190 -13.0962 -12.9125  -2.6307  -2.6042
    -1.2688  -0.9432  -0.7160  -0.6753  -0.4479   0.7102   3.0122   3.0392
     3.3588   3.6025   3.6212   4.0371   4.1969   4.7638   4.8360   4.9637
    10.9437  11.3525  13.0078  16.4210  16.6537  16.8624

          k = 0.1237 0.3038-0.8734 (  3730 PWs)   bands (ev):

   -67.2489 -67.2488 -34.0382 -34.0375 -34.0356 -34.0345 -34.0049 -34.0031
   -16.2545 -16.1220 -13.2546 -13.2398 -13.0767 -12.9992  -2.2343  -2.1924
    -1.1390  -0.9255  -0.7197  -0.5328  -0.1094   0.2416   2.4354   2.6985
     3.0235   3.3364   3.5349   3.7792   4.2858   4.5734   5.2850   5.3443
    11.2416  11.3856  14.2878  15.4428  16.0371  16.2340

          k = 0.1293 0.3038-0.5101 (  3728 PWs)   bands (ev):

   -67.2489 -67.2488 -34.0380 -34.0368 -34.0361 -34.0347 -34.0054 -34.0028
   -16.2844 -16.0969 -13.2246 -13.2025 -13.1210 -13.0110  -2.2171  -2.1586
    -1.2889  -0.8490  -0.6787  -0.5520  -0.3466   0.4022   2.3581   2.7056
     2.9648   3.4448   3.5335   3.9714   4.3732   4.4442   5.2749   5.3782
    11.1963  11.4195  13.9405  15.6246  16.1548  16.2034

          k =-0.2698-0.6076 0.2935 (  3720 PWs)   bands (ev):

   -67.2488 -67.2488 -34.0365 -34.0365 -34.0362 -34.0362 -34.0042 -34.0042
   -16.1940 -16.1940 -13.2125 -13.2125 -13.0621 -13.0621  -2.3178  -2.3178
    -0.9576  -0.9576  -0.4636  -0.4635  -0.0829  -0.0829   2.4021   2.4021
     3.1522   3.1522   3.9517   3.9518   4.3738   4.3738   5.3317   5.3317
    11.2302  11.2302  14.6915  14.6915  16.1602  16.1602

          k =-0.2642-0.6076 0.6568 (  3730 PWs)   bands (ev):

   -67.2489 -67.2488 -34.0382 -34.0375 -34.0356 -34.0345 -34.0049 -34.0031
   -16.2545 -16.1220 -13.2546 -13.2398 -13.0767 -12.9992  -2.2343  -2.1924
    -1.1390  -0.9255  -0.7197  -0.5328  -0.1094   0.2416   2.4354   2.6985
     3.0235   3.3364   3.5349   3.7792   4.2858   4.5734   5.2850   5.3443
    11.2416  11.3856  14.2878  15.4428  16.0371  16.2340

          k =-0.2810-0.6076-0.4331 (  3744 PWs)   bands (ev):

   -67.2489 -67.2488 -34.0389 -34.0381 -34.0355 -34.0336 -34.0052 -34.0026
   -16.2647 -16.1007 -13.3593 -13.2021 -13.1042 -12.9207  -2.3765  -2.1651
    -1.0017  -0.8884  -0.7252  -0.5272  -0.1226   0.4183   2.5959   2.7928
     2.8841   3.2060   3.2135   3.7515   4.2077   4.7022   5.2501   5.3344
    11.2229  11.5593  14.3791  15.7415  15.7720  16.1144

          k = 0.2698 0.0000-0.2935 (  3721 PWs)   bands (ev):

   -67.2490 -67.2487 -34.0385 -34.0367 -34.0361 -34.0339 -34.0067 -34.0015
   -16.4408 -16.0632 -13.1475 -13.1190 -13.0962 -12.9125  -2.6307  -2.6042
    -1.2688  -0.9432  -0.7160  -0.6753  -0.4479   0.7102   3.0122   3.0392
     3.3588   3.6024   3.6212   4.0371   4.1969   4.7638   4.8361   4.9637
    10.9437  11.3525  13.0078  16.4210  16.6537  16.8624

          k = 0.2754 0.0000 0.0698 (  3696 PWs)   bands (ev):

   -67.2490 -67.2487 -34.0375 -34.0375 -34.0347 -34.0347 -34.0070 -34.0015
   -16.5154 -16.1127 -13.0637 -13.0637 -12.9327 -12.9327  -3.0010  -2.9602
    -1.0480  -0.9248  -0.9248  -0.6410  -0.6410   0.7286   3.5436   3.5436
     3.6038   3.6038   3.8618   4.1309   4.1309   4.4052   4.8663   4.8663
    10.5772  11.0774  12.6589  15.6315  17.6714  17.9355

          k = 0.2586 0.0000-1.0201 (  3726 PWs)   bands (ev):

   -67.2489 -67.2488 -34.0380 -34.0365 -34.0358 -34.0347 -34.0055 -34.0029
   -16.3541 -16.1543 -13.2071 -13.0606 -13.0172 -12.9955  -2.7278  -2.6644
    -0.9219  -0.8519  -0.6925  -0.6709  -0.2973   0.3231   2.9270   3.1136
     3.4271   3.4388   3.6903   4.2064   4.2935   4.3721   4.8824   4.9299
    10.9273  11.0947  13.7761  15.6594  16.4262  16.7942

          k = 0.2642 0.0000-0.6568 (  3736 PWs)   bands (ev):

   -67.2489 -67.2488 -34.0381 -34.0376 -34.0357 -34.0344 -34.0049 -34.0031
   -16.2462 -16.1304 -13.3122 -13.1615 -13.1320 -12.9619  -2.3692  -2.2197
    -1.0680  -0.6967  -0.6504  -0.5869  -0.2301   0.3060   2.4803   2.4966
     3.1292   3.2250   3.3972   4.0448   4.2329   4.5513   5.2753   5.3433
    11.1878  11.4325  14.3756  15.4918  15.9290  15.9439

          k =-0.1349-0.9114 0.1467 (  3730 PWs)   bands (ev):

   -67.2489 -67.2488 -34.0382 -34.0375 -34.0356 -34.0345 -34.0049 -34.0031
   -16.2545 -16.1220 -13.2545 -13.2398 -13.0767 -12.9992  -2.2343  -2.1924
    -1.1390  -0.9255  -0.7197  -0.5328  -0.1094   0.2416   2.4354   2.6985
     3.0235   3.3364   3.5349   3.7792   4.2858   4.5734   5.2850   5.3443
    11.2416  11.3856  14.2878  15.4428  16.0371  16.2340

          k =-0.1293-0.9114 0.5101 (  3726 PWs)   bands (ev):

   -67.2489 -67.2488 -34.0380 -34.0365 -34.0358 -34.0347 -34.0055 -34.0029
   -16.3541 -16.1543 -13.2071 -13.0606 -13.0172 -12.9955  -2.7278  -2.6644
    -0.9219  -0.8519  -0.6925  -0.6709  -0.2973   0.3231   2.9270   3.1136
     3.4271   3.4388   3.6903   4.2064   4.2935   4.3721   4.8824   4.9299
    10.9273  11.0947  13.7761  15.6594  16.4262  16.7942

          k =-0.1461-0.9114-0.5799 (  3739 PWs)   bands (ev):

   -67.2489 -67.2488 -34.0380 -34.0374 -34.0355 -34.0343 -34.0050 -34.0032
   -16.3155 -16.1898 -13.1924 -13.1334 -13.0373 -12.9263  -2.7334  -2.6776
    -0.9959  -0.7387  -0.6992  -0.5621  -0.2586   0.2490   3.0853   3.1688
     3.1806   3.4488   3.7350   3.9875   4.2296   4.6267   4.7877   4.8645
    10.9105  11.1196  14.1576  15.2413  16.5068  16.6104

          k =-0.1405-0.9114-0.2166 (  3746 PWs)   bands (ev):

   -67.2488 -67.2488 -34.0382 -34.0382 -34.0348 -34.0348 -34.0040 -34.0040
   -16.1858 -16.1858 -13.2738 -13.2738 -13.0169 -13.0169  -2.2367  -2.2367
    -0.9491  -0.9491  -0.6613  -0.6613   0.0850   0.0850   2.6083   2.6083
     3.1770   3.1770   3.5152   3.5152   4.4636   4.4636   5.3015   5.3015
    11.3235  11.3235  15.0607  15.0607  15.8754  15.8754

          k = 0.0000-0.6076 0.0000 (  3728 PWs)   bands (ev):

   -67.2489 -67.2488 -34.0380 -34.0368 -34.0361 -34.0347 -34.0054 -34.0028
   -16.2844 -16.0969 -13.2246 -13.2025 -13.1210 -13.0110  -2.2171  -2.1586
    -1.2889  -0.8490  -0.6787  -0.5520  -0.3466   0.4022   2.3581   2.7056
     2.9648   3.4448   3.5335   3.9714   4.3732   4.4442   5.2749   5.3782
    11.1963  11.4195  13.9405  15.6246  16.1548  16.2034

          k = 0.0056-0.6076 0.3633 (  3736 PWs)   bands (ev):

   -67.2489 -67.2488 -34.0381 -34.0376 -34.0357 -34.0344 -34.0049 -34.0031
   -16.2462 -16.1304 -13.3122 -13.1615 -13.1320 -12.9619  -2.3692  -2.2197
    -1.0680  -0.6967  -0.6504  -0.5869  -0.2301   0.3060   2.4803   2.4966
     3.1292   3.2250   3.3972   4.0448   4.2329   4.5513   5.2753   5.3433
    11.1878  11.4325  14.3756  15.4918  15.9290  15.9439

          k =-0.0112-0.6076-0.7266 (  3746 PWs)   bands (ev):

   -67.2488 -67.2488 -34.0382 -34.0382 -34.0348 -34.0348 -34.0040 -34.0040
   -16.1858 -16.1858 -13.2738 -13.2738 -13.0169 -13.0169  -2.2367  -2.2367
    -0.9491  -0.9491  -0.6613  -0.6613   0.0850   0.0850   2.6083   2.6083
     3.1770   3.1770   3.5152   3.5152   4.4636   4.4636   5.3015   5.3015
    11.3235  11.3235  15.0607  15.0607  15.8754  15.8754

          k =-0.5396 0.0000 0.5870 (  3744 PWs)   bands (ev):

   -67.2489 -67.2488 -34.0389 -34.0381 -34.0355 -34.0336 -34.0052 -34.0026
   -16.2647 -16.1007 -13.3593 -13.2021 -13.1041 -12.9207  -2.3765  -2.1651
    -1.0017  -0.8883  -0.7252  -0.5272  -0.1226   0.4183   2.5959   2.7927
     2.8841   3.2059   3.2135   3.7515   4.2077   4.7022   5.2502   5.3344
    11.2229  11.5593  14.3791  15.7415  15.7720  16.1144

          k =-0.5340 0.0000 0.9503 (  3739 PWs)   bands (ev):

   -67.2489 -67.2488 -34.0380 -34.0374 -34.0355 -34.0343 -34.0050 -34.0032
   -16.3155 -16.1898 -13.1924 -13.1334 -13.0373 -12.9263  -2.7334  -2.6776
    -0.9959  -0.7387  -0.6992  -0.5621  -0.2586   0.2490   3.0853   3.1688
     3.1806   3.4488   3.7350   3.9875   4.2296   4.6267   4.7877   4.8645
    10.9105  11.1196  14.1576  15.2413  16.5068  16.6104

          k =-0.5508 0.0000-0.1397 (  3712 PWs)   bands (ev):

   -67.2488 -67.2488 -34.0361 -34.0361 -34.0361 -34.0361 -34.0043 -34.0043
   -16.3185 -16.3185 -12.9994 -12.9994 -12.9994 -12.9994  -3.0583  -3.0583
    -0.7638  -0.7638  -0.7638  -0.7638  -0.0717  -0.0717   3.5482   3.5482
     3.5482   3.5482   4.1231   4.1231   4.4751   4.4751   4.4751   4.4751
    10.6315  10.6315  14.1495  14.1495  18.0176  18.0176

     the Fermi energy is     7.8827 ev

!    total energy              =    -538.15657974 Ry
     estimated scf accuracy    <          1.0E-09 Ry
     smearing contrib. (-TS)   =      -0.00000000 Ry
     internal energy E=F+TS    =    -538.15657974 Ry

     The total energy is F=E-TS. E is the sum of the following terms:
     one-electron contribution =    -243.94806437 Ry
     hartree contribution      =     148.44795763 Ry
     xc contribution           =     -88.37070643 Ry
     ewald contribution        =    -284.92429077 Ry
     one-center paw contrib.   =     -69.36147580 Ry

     convergence has been achieved in  12 iterations

     Forces acting on atoms (cartesian axes, Ry/au):

     atom    1 type  1   force =     0.00000000    0.00000000   -0.00000000
     atom    2 type  1   force =    -0.00000000    0.00000000    0.00000000
     atom    3 type  2   force =     0.00000000    0.00000055    0.00000000
     atom    4 type  2   force =     0.00000000   -0.00000055   -0.00000000
     atom    5 type  3   force =     0.00166318   -0.00390749   -0.00656073
     atom    6 type  3   force =     0.00000000    0.00781472    0.00000000
     atom    7 type  3   force =     0.00166318    0.00390749   -0.00656073
     atom    8 type  3   force =    -0.00166318    0.00390749    0.00656073
     atom    9 type  3   force =     0.00000000   -0.00781472    0.00000000
     atom   10 type  3   force =    -0.00166318   -0.00390749    0.00656073

     Total force =     0.019143     Total SCF correction =     0.000001


     Computing stress (Cartesian axis) and pressure

          total   stress  (Ry/bohr**3)                   (kbar)     P=       52.79
   0.00030164  -0.00000000  -0.00002249           44.37       -0.00       -3.31
   0.00000000   0.00039033   0.00000000            0.00       57.42        0.00
  -0.00002249  -0.00000000   0.00038463           -3.31       -0.00       56.58


     BFGS Geometry Optimization
     Energy error            =      0.0E+00
     Gradient error          =      7.8E-03
     Cell gradient error     =      3.9E-04


     number of scf cycles    =   1
     number of bfgs steps    =   0

     enthalpy new            =    -538.1565797408 Ry

     new trust radius        =       0.0487755969 bohr
     new conv_thr            =       0.0000000100 Ry

     new unit-cell volume =    641.56758 a.u.^3 (    95.07051 Ang^3 )
     density =      2.94529 g/cm^3

CELL_PARAMETERS (angstrom)
   5.178253311  -2.343046021  -0.082657322
   5.178253311   2.343046021  -0.082657322
   4.180869297   0.000000000   3.851148492

ATOMIC_POSITIONS (angstrom)
Mg            7.2686879593        0.0000000000        1.8429169243
Mg           -0.0000000000        0.0000000000        0.0000000000
C            10.9030319390        0.0000002931        2.7643753864
C             3.6343439797       -0.0000002931        0.9214584621
O             6.0026225546        1.6903372482        1.7511814293
O             5.7247786280       -1.0376286143        2.8470327081
O             8.0930572029        0.6527087728        3.6767556753
O             8.5347533641       -1.6903372482        1.9346524193
O             8.8125972907        1.0376286143        0.8388011405
O             6.4443187158       -0.6527087728        0.0090781733



     Writing output data file ./out/CMgO3.save/
     NEW-OLD atomic charge density approx. for the potential

     Check: negative core charge=   -0.000005
     extrapolated charge   65.67612, renormalised to   64.00000

     total cpu time spent up to now is       78.3 secs

     Self-consistent Calculation

     iteration #  1     ecut=    50.00 Ry     beta= 0.30
     Davidson diagonalization with overlap
     ethr =  1.00E-06,  avg # of iterations =  9.4

     total cpu time spent up to now is       89.3 secs

     total energy              =    -538.05329177 Ry
     estimated scf accuracy    <       0.07874452 Ry

     iteration #  2     ecut=    50.00 Ry     beta= 0.30
     Davidson diagonalization with overlap
     ethr =  1.23E-04,  avg # of iterations =  3.1

     total cpu time spent up to now is       95.4 secs

     total energy              =    -538.16362194 Ry
     estimated scf accuracy    <       0.03769638 Ry

     iteration #  3     ecut=    50.00 Ry     beta= 0.30
     Davidson diagonalization with overlap
     ethr =  5.89E-05,  avg # of iterations =  1.7

     total cpu time spent up to now is       99.4 secs

     total energy              =    -538.15666442 Ry
     estimated scf accuracy    <       0.01634317 Ry

     iteration #  4     ecut=    50.00 Ry     beta= 0.30
     Davidson diagonalization with overlap
     ethr =  2.55E-05,  avg # of iterations =  2.0

     total cpu time spent up to now is      104.0 secs

     total energy              =    -538.15890465 Ry
     estimated scf accuracy    <       0.00122304 Ry

     iteration #  5     ecut=    50.00 Ry     beta= 0.30
     Davidson diagonalization with overlap
     ethr =  1.91E-06,  avg # of iterations =  4.7

     total cpu time spent up to now is      108.6 secs

     total energy              =    -538.15796184 Ry
     estimated scf accuracy    <       0.00137581 Ry

     iteration #  6     ecut=    50.00 Ry     beta= 0.30
     Davidson diagonalization with overlap
     ethr =  1.91E-06,  avg # of iterations =  2.0

     total cpu time spent up to now is      113.6 secs

     total energy              =    -538.15820210 Ry
     estimated scf accuracy    <       0.00001629 Ry

     iteration #  7     ecut=    50.00 Ry     beta= 0.30
     Davidson diagonalization with overlap
     ethr =  2.55E-08,  avg # of iterations =  5.0

     total cpu time spent up to now is      121.1 secs

     total energy              =    -538.15822070 Ry
     estimated scf accuracy    <       0.00011623 Ry

     iteration #  8     ecut=    50.00 Ry     beta= 0.30
     Davidson diagonalization with overlap
     ethr =  2.55E-08,  avg # of iterations =  2.0

     total cpu time spent up to now is      126.0 secs

     total energy              =    -538.15821366 Ry
     estimated scf accuracy    <       0.00002834 Ry

     iteration #  9     ecut=    50.00 Ry     beta= 0.30
     Davidson diagonalization with overlap
     ethr =  2.55E-08,  avg # of iterations =  2.0

     total cpu time spent up to now is      130.9 secs

     total energy              =    -538.15821896 Ry
     estimated scf accuracy    <       0.00000036 Ry

     iteration # 10     ecut=    50.00 Ry     beta= 0.30
     Davidson diagonalization with overlap
     ethr =  5.63E-10,  avg # of iterations =  4.9

     total cpu time spent up to now is      137.4 secs

     total energy              =    -538.15821937 Ry
     estimated scf accuracy    <       0.00000027 Ry

     iteration # 11     ecut=    50.00 Ry     beta= 0.30
     Davidson diagonalization with overlap
     ethr =  4.25E-10,  avg # of iterations =  1.0

     total cpu time spent up to now is      141.1 secs

     total energy              =    -538.15821929 Ry
     estimated scf accuracy    <       0.00000021 Ry

     iteration # 12     ecut=    50.00 Ry     beta= 0.30
     Davidson diagonalization with overlap
     ethr =  3.25E-10,  avg # of iterations =  2.0

     total cpu time spent up to now is      146.0 secs

     End of self-consistent calculation

          k = 0.0000 0.0000 0.0000 (  3657 PWs)   bands (ev):

   -67.6462 -67.6458 -34.4318 -34.4318 -34.4283 -34.4283 -34.4036 -34.3968
   -16.6062 -16.0542 -13.2256 -13.2256 -13.0514 -13.0514  -3.1900  -3.0771
    -1.6369  -1.1769  -1.1769  -0.7962  -0.7962   0.8671   3.3192   3.3192
     3.3630   3.3630   3.4576   3.7560   3.7560   4.2664   4.7512   4.7512
    10.3822  10.8588  11.2460  15.6187  17.4178  17.6766

          k = 0.0057 0.0000 0.3599 (  3734 PWs)   bands (ev):

   -67.6461 -67.6458 -34.4315 -34.4314 -34.4290 -34.4289 -34.4026 -34.3978
   -16.4730 -16.0776 -13.2974 -13.2303 -13.1816 -13.1128  -2.9084  -2.8327
    -1.4118  -1.1285  -0.9803  -0.8876  -0.5952   0.5816   2.6547   2.7686
     3.1982   3.4282   3.5531   3.5640   4.0311   4.3493   4.6891   4.7009
    10.4977  10.8379  12.2621  16.1542  16.2493  16.2742

          k =-0.0115 0.0000-0.7197 (  3720 PWs)   bands (ev):

   -67.6460 -67.6460 -34.4305 -34.4305 -34.4302 -34.4302 -34.4001 -34.4001
   -16.2167 -16.2167 -13.3461 -13.3461 -13.2013 -13.2013  -2.5908  -2.5908
    -1.1420  -1.1420  -0.6407  -0.6407  -0.2279  -0.2279   2.1688   2.1688
     2.9170   2.9170   3.6987   3.6987   4.1095   4.1095   5.0110   5.0110
    10.7376  10.7376  14.1495  14.1495  15.5846  15.5846

          k = 0.1338 0.3009-0.1453 (  3734 PWs)   bands (ev):

   -67.6461 -67.6458 -34.4315 -34.4314 -34.4290 -34.4289 -34.4026 -34.3978
   -16.4730 -16.0776 -13.2974 -13.2303 -13.1816 -13.1128  -2.9084  -2.8327
    -1.4118  -1.1285  -0.9803  -0.8876  -0.5952   0.5816   2.6547   2.7686
     3.1982   3.4282   3.5531   3.5640   4.0311   4.3493   4.6891   4.7009
    10.4977  10.8379  12.2621  16.1542  16.2493  16.2742

          k = 0.1396 0.3009 0.2146 (  3721 PWs)   bands (ev):

   -67.6461 -67.6458 -34.4322 -34.4306 -34.4300 -34.4281 -34.4024 -34.3978
   -16.4569 -16.0906 -13.2821 -13.2565 -13.2331 -13.0590  -2.8903  -2.8754
    -1.3978  -1.0886  -0.8940  -0.8646  -0.6417   0.5706   2.7628   2.7864
     3.1298   3.3408   3.3627   3.7844   3.9227   4.4869   4.5428   4.6580
    10.4615  10.8606  12.4532  15.8793  16.0972  16.2259

          k = 0.1223 0.3009-0.8650 (  3730 PWs)   bands (ev):

   -67.6460 -67.6459 -34.4319 -34.4313 -34.4297 -34.4287 -34.4008 -34.3992
   -16.2756 -16.1468 -13.3863 -13.3717 -13.2154 -13.1417  -2.5226  -2.4851
    -1.2957  -1.0943  -0.8737  -0.7232  -0.2795   0.1061   2.2000   2.4546
     2.7946   3.0875   3.2976   3.5361   4.0226   4.3031   4.9651   5.0236
    10.7464  10.8856  13.7428  14.8919  15.4648  15.6241

          k = 0.1281 0.3009-0.5051 (  3728 PWs)   bands (ev):

   -67.6460 -67.6459 -34.4318 -34.4307 -34.4301 -34.4289 -34.4012 -34.3989
   -16.3047 -16.1225 -13.3577 -13.3358 -13.2580 -13.1531  -2.5105  -2.4590
    -1.4314  -1.0076  -0.8679  -0.6740  -0.5486   0.2582   2.1227   2.4589
     2.7397   3.1949   3.2921   3.7234   4.1087   4.1777   4.9554   5.0573
    10.7012  10.9175  13.4011  15.0595  15.5725  15.6479

          k =-0.2676-0.6017 0.2905 (  3720 PWs)   bands (ev):

   -67.6460 -67.6460 -34.4305 -34.4305 -34.4302 -34.4302 -34.4001 -34.4001
   -16.2167 -16.2167 -13.3461 -13.3461 -13.2013 -13.2013  -2.5908  -2.5908
    -1.1420  -1.1420  -0.6407  -0.6407  -0.2279  -0.2279   2.1688   2.1688
     2.9170   2.9170   3.6987   3.6988   4.1095   4.1095   5.0110   5.0110
    10.7376  10.7376  14.1495  14.1495  15.5846  15.5846

          k =-0.2619-0.6017 0.6504 (  3730 PWs)   bands (ev):

   -67.6460 -67.6459 -34.4319 -34.4313 -34.4297 -34.4287 -34.4008 -34.3992
   -16.2756 -16.1468 -13.3863 -13.3717 -13.2154 -13.1417  -2.5226  -2.4851
    -1.2957  -1.0943  -0.8737  -0.7232  -0.2795   0.1061   2.2000   2.4546
     2.7946   3.0875   3.2976   3.5361   4.0226   4.3031   4.9651   5.0236
    10.7464  10.8856  13.7428  14.8919  15.4648  15.6242

          k =-0.2791-0.6017-0.4292 (  3744 PWs)   bands (ev):

   -67.6460 -67.6459 -34.4325 -34.4318 -34.4296 -34.4279 -34.4010 -34.3988
   -16.2857 -16.1260 -13.4865 -13.3356 -13.2419 -13.0664  -2.6484  -2.4553
    -1.2050  -1.0086  -0.8845  -0.7292  -0.2983   0.2694   2.3717   2.5545
     2.6497   2.9626   2.9863   3.5010   3.9472   4.4288   4.9273   5.0147
    10.7278  11.0504  13.8658  15.1925  15.2371  15.4918

          k = 0.2676 0.0000-0.2905 (  3721 PWs)   bands (ev):

   -67.6461 -67.6458 -34.4322 -34.4306 -34.4300 -34.4281 -34.4024 -34.3978
   -16.4569 -16.0906 -13.2821 -13.2565 -13.2331 -13.0590  -2.8903  -2.8754
    -1.3978  -1.0886  -0.8940  -0.8646  -0.6417   0.5706   2.7628   2.7864
     3.1298   3.3408   3.3627   3.7844   3.9227   4.4869   4.5428   4.6580
    10.4615  10.8606  12.4532  15.8793  16.0972  16.2259

          k = 0.2734 0.0000 0.0693 (  3696 PWs)   bands (ev):

   -67.6461 -67.6458 -34.4313 -34.4313 -34.4289 -34.4289 -34.4026 -34.3978
   -16.5295 -16.1395 -13.2012 -13.2012 -13.0781 -13.0780  -3.2386  -3.2046
    -1.1579  -1.1062  -1.1062  -0.8302  -0.8302   0.5896   3.2864   3.2864
     3.3563   3.3563   3.5721   3.8660   3.8660   4.1137   4.5872   4.5872
    10.1106  10.6055  12.0799  14.9936  17.1686  17.4426

          k = 0.2561 0.0000-1.0103 (  3726 PWs)   bands (ev):

   -67.6460 -67.6459 -34.4318 -34.4304 -34.4299 -34.4289 -34.4013 -34.3990
   -16.3727 -16.1790 -13.3399 -13.2004 -13.1586 -13.1365  -2.9779  -2.9205
    -1.0979  -1.0382  -0.8800  -0.8207  -0.4714   0.1897   2.6776   2.8616
     3.1863   3.1892   3.4389   3.9469   4.0306   4.0913   4.5770   4.6358
    10.4524  10.6167  13.1971  15.0415  15.8825  16.2446

          k = 0.2619 0.0000-0.6504 (  3736 PWs)   bands (ev):

   -67.6460 -67.6459 -34.4318 -34.4313 -34.4298 -34.4286 -34.4008 -34.3992
   -16.2677 -16.1549 -13.4415 -13.2967 -13.2687 -13.1057  -2.6395  -2.5032
    -1.2505  -0.8882  -0.8155  -0.7411  -0.3945   0.1525   2.2471   2.2672
     2.9028   2.9803   3.1516   3.7913   3.9749   4.2809   4.9534   5.0230
    10.6950  10.9307  13.8509  14.9162  15.3531  15.4054

          k =-0.1338-0.9026 0.1453 (  3730 PWs)   bands (ev):

   -67.6460 -67.6459 -34.4319 -34.4313 -34.4297 -34.4287 -34.4008 -34.3992
   -16.2756 -16.1468 -13.3862 -13.3717 -13.2154 -13.1417  -2.5226  -2.4851
    -1.2957  -1.0943  -0.8737  -0.7232  -0.2795   0.1061   2.2000   2.4546
     2.7946   3.0875   3.2976   3.5361   4.0226   4.3031   4.9651   5.0236
    10.7464  10.8856  13.7428  14.8919  15.4648  15.6242

          k =-0.1281-0.9026 0.5051 (  3726 PWs)   bands (ev):

   -67.6460 -67.6459 -34.4318 -34.4304 -34.4299 -34.4289 -34.4013 -34.3990
   -16.3727 -16.1790 -13.3399 -13.2004 -13.1586 -13.1364  -2.9779  -2.9205
    -1.0979  -1.0382  -0.8800  -0.8207  -0.4714   0.1898   2.6776   2.8616
     3.1863   3.1892   3.4389   3.9469   4.0306   4.0913   4.5770   4.6358
    10.4524  10.6167  13.1971  15.0415  15.8825  16.2446

          k =-0.1453-0.9026-0.5744 (  3739 PWs)   bands (ev):

   -67.6460 -67.6459 -34.4318 -34.4312 -34.4296 -34.4285 -34.4009 -34.3993
   -16.3354 -16.2133 -13.3263 -13.2694 -13.1770 -13.0713  -2.9837  -2.9311
    -1.1741  -0.9209  -0.8742  -0.7544  -0.4060   0.1082   2.8420   2.9281
     2.9319   3.1921   3.4885   3.7250   3.9679   4.3549   4.4852   4.5613
    10.4376  10.6401  13.5763  14.6204  15.9663  16.0939

          k =-0.1396-0.9026-0.2146 (  3746 PWs)   bands (ev):

   -67.6460 -67.6460 -34.4319 -34.4319 -34.4289 -34.4289 -34.4000 -34.4000
   -16.2088 -16.2088 -13.4045 -13.4045 -13.1583 -13.1583  -2.5217  -2.5217
    -1.1273  -1.1273  -0.8276  -0.8276  -0.0665  -0.0665   2.3717   2.3717
     2.9342   2.9342   3.2804   3.2804   4.1966   4.1966   4.9807   4.9807
    10.8264  10.8264  14.5041  14.5041  15.3026  15.3026

          k = 0.0000-0.6017 0.0000 (  3728 PWs)   bands (ev):

   -67.6460 -67.6459 -34.4318 -34.4307 -34.4301 -34.4289 -34.4012 -34.3989
   -16.3047 -16.1225 -13.3577 -13.3358 -13.2580 -13.1531  -2.5105  -2.4590
    -1.4314  -1.0076  -0.8679  -0.6740  -0.5486   0.2582   2.1227   2.4589
     2.7397   3.1949   3.2921   3.7234   4.1087   4.1777   4.9554   5.0573
    10.7012  10.9175  13.4011  15.0595  15.5725  15.6479

          k = 0.0057-0.6017 0.3599 (  3736 PWs)   bands (ev):

   -67.6460 -67.6459 -34.4318 -34.4313 -34.4298 -34.4286 -34.4008 -34.3992
   -16.2677 -16.1549 -13.4415 -13.2967 -13.2687 -13.1057  -2.6395  -2.5032
    -1.2505  -0.8882  -0.8155  -0.7411  -0.3945   0.1525   2.2471   2.2672
     2.9029   2.9803   3.1516   3.7913   3.9749   4.2809   4.9534   5.0230
    10.6951  10.9307  13.8509  14.9162  15.3531  15.4054

          k =-0.0115-0.6017-0.7197 (  3746 PWs)   bands (ev):

   -67.6460 -67.6460 -34.4319 -34.4319 -34.4289 -34.4289 -34.4000 -34.4000
   -16.2088 -16.2088 -13.4045 -13.4045 -13.1583 -13.1583  -2.5217  -2.5217
    -1.1273  -1.1273  -0.8276  -0.8276  -0.0665  -0.0665   2.3717   2.3717
     2.9342   2.9342   3.2804   3.2804   4.1966   4.1966   4.9807   4.9807
    10.8264  10.8264  14.5041  14.5041  15.3026  15.3026

          k =-0.5353 0.0000 0.5811 (  3744 PWs)   bands (ev):

   -67.6460 -67.6459 -34.4325 -34.4318 -34.4296 -34.4279 -34.4010 -34.3988
   -16.2857 -16.1260 -13.4865 -13.3356 -13.2418 -13.0664  -2.6484  -2.4553
    -1.2050  -1.0086  -0.8845  -0.7292  -0.2983   0.2694   2.3717   2.5545
     2.6497   2.9626   2.9863   3.5010   3.9472   4.4288   4.9273   5.0147
    10.7277  11.0504  13.8658  15.1925  15.2371  15.4918

          k =-0.5295 0.0000 0.9410 (  3739 PWs)   bands (ev):

   -67.6460 -67.6459 -34.4318 -34.4312 -34.4296 -34.4285 -34.4009 -34.3993
   -16.3354 -16.2133 -13.3263 -13.2694 -13.1770 -13.0713  -2.9837  -2.9311
    -1.1741  -0.9209  -0.8742  -0.7544  -0.4060   0.1082   2.8419   2.9281
     2.9319   3.1921   3.4885   3.7250   3.9679   4.3549   4.4852   4.5613
    10.4376  10.6401  13.5764  14.6204  15.9663  16.0939

          k =-0.5468 0.0000-0.1386 (  3712 PWs)   bands (ev):

   -67.6460 -67.6460 -34.4301 -34.4301 -34.4301 -34.4301 -34.4002 -34.4002
   -16.3388 -16.3388 -13.1407 -13.1407 -13.1407 -13.1407  -3.2908  -3.2908
    -0.9502  -0.9502  -0.9502  -0.9502  -0.2081  -0.2081   3.2963   3.2963
     3.2963   3.2963   3.8330   3.8330   4.2052   4.2052   4.2052   4.2052
    10.1760  10.1760  13.5341  13.5341  17.4826  17.4826

     the Fermi energy is     7.1133 ev

!    total energy              =    -538.15821936 Ry
     estimated scf accuracy    <          8.1E-09 Ry
     smearing contrib. (-TS)   =      -0.00000000 Ry
     internal energy E=F+TS    =    -538.15821936 Ry

     The total energy is F=E-TS. E is the sum of the following terms:
     one-electron contribution =    -247.34184977 Ry
     hartree contribution      =     149.44410263 Ry
     xc contribution           =     -88.17584097 Ry
     ewald contribution        =    -282.71589339 Ry
     one-center paw contrib.   =     -69.36873786 Ry

     convergence has been achieved in  12 iterations

     Forces acting on atoms (cartesian axes, Ry/au):

     atom    1 type  1   force =    -0.00000000    0.00000000   -0.00000000
     atom    2 type  1   force =     0.00000000    0.00000000    0.00000000
     atom    3 type  2   force =     0.00000000   -0.00000059    0.00000000
     atom    4 type  2   force =     0.00000000    0.00000059   -0.00000000
     atom    5 type  3   force =    -0.00601631    0.01413303    0.02372808
     atom    6 type  3   force =     0.00000000   -0.02826556    0.00000000
     atom    7 type  3   force =    -0.00601631   -0.01413303    0.02372808
     atom    8 type  3   force =     0.00601631   -0.01413303   -0.02372808
     atom    9 type  3   force =     0.00000000    0.02826556   -0.00000000
     atom   10 type  3   force =     0.00601631    0.01413303   -0.02372808

     Total force =     0.069237     Total SCF correction =     0.000086


     Computing stress (Cartesian axis) and pressure

          total   stress  (Ry/bohr**3)                   (kbar)     P=      -11.92
   0.00014944   0.00000000   0.00009057           21.98        0.00       13.32
  -0.00000000  -0.00020777   0.00000000           -0.00      -30.56        0.00
   0.00009057   0.00000000  -0.00018482           13.32        0.00      -27.19

     Energy error            =      1.6E-03
     Gradient error          =      2.8E-02
     Cell gradient error     =      2.1E-04


     number of scf cycles    =   2
     number of bfgs steps    =   1

     enthalpy old            =    -538.1565797408 Ry
     enthalpy new            =    -538.1582193650 Ry

     CASE: enthalpy_new < enthalpy_old

     new trust radius        =       0.0279292555 bohr
     new conv_thr            =       0.0000000100 Ry

     new unit-cell volume =    645.29346 a.u.^3 (    95.62263 Ang^3 )
     density =      2.92828 g/cm^3

CELL_PARAMETERS (angstrom)
   5.205834401  -2.343185641  -0.075747342
   5.205834401   2.343185641  -0.075747342
   4.208391087   0.000000000   3.858292579

ATOMIC_POSITIONS (angstrom)
Mg            7.3100299443        0.0000000000        1.8533989472
Mg           -0.0000000000        0.0000000000        0.0000000000
C            10.9650449165        0.0000001865        2.7800984209
C             3.6550149722       -0.0000001865        0.9266994736
O             6.0352054584        1.6948201604        1.7672864891
O             5.7592105156       -1.0464546897        2.8558457629
O             8.1394010018        0.6483654804        3.6964327784
O             8.5848544302       -1.6948201604        1.9395114054
O             8.8608493730        1.0464546897        0.8509521315
O             6.4806588869       -0.6483654804        0.0103651161



     Writing output data file ./out/CMgO3.save/
     NEW-OLD atomic charge density approx. for the potential

     Check: negative core charge=   -0.000005
     extrapolated charge   64.36606, renormalised to   64.00000

     total cpu time spent up to now is      160.3 secs

     Self-consistent Calculation

     iteration #  1     ecut=    50.00 Ry     beta= 0.30
     Davidson diagonalization with overlap
     ethr =  1.00E-06,  avg # of iterations =  8.1

     total cpu time spent up to now is      170.1 secs

     total energy              =    -538.15611857 Ry
     estimated scf accuracy    <       0.00283869 Ry

     iteration #  2     ecut=    50.00 Ry     beta= 0.30
     Davidson diagonalization with overlap
     ethr =  4.44E-06,  avg # of iterations =  4.2

     total cpu time spent up to now is      176.6 secs

     total energy              =    -538.16074610 Ry
     estimated scf accuracy    <       0.00256331 Ry

     iteration #  3     ecut=    50.00 Ry     beta= 0.30
     Davidson diagonalization with overlap
     ethr =  4.01E-06,  avg # of iterations =  1.3

     total cpu time spent up to now is      180.4 secs

     total energy              =    -538.16010401 Ry
     estimated scf accuracy    <       0.00121913 Ry

     iteration #  4     ecut=    50.00 Ry     beta= 0.30
     Davidson diagonalization with overlap
     ethr =  1.90E-06,  avg # of iterations =  2.0

     total cpu time spent up to now is      185.3 secs

     total energy              =    -538.16037323 Ry
     estimated scf accuracy    <       0.00002728 Ry

     iteration #  5     ecut=    50.00 Ry     beta= 0.30
     Davidson diagonalization with overlap
     ethr =  4.26E-08,  avg # of iterations =  2.0

     total cpu time spent up to now is      190.2 secs

     total energy              =    -538.16036962 Ry
     estimated scf accuracy    <       0.00003075 Ry

     iteration #  6     ecut=    50.00 Ry     beta= 0.30
     Davidson diagonalization with overlap
     ethr =  4.26E-08,  avg # of iterations =  2.0

     total cpu time spent up to now is      194.9 secs

     total energy              =    -538.16037424 Ry
     estimated scf accuracy    <       0.00000115 Ry

     iteration #  7     ecut=    50.00 Ry     beta= 0.30
     Davidson diagonalization with overlap
     ethr =  1.79E-09,  avg # of iterations =  3.0

     total cpu time spent up to now is      201.1 secs

     total energy              =    -538.16037469 Ry
     estimated scf accuracy    <       0.00000133 Ry

     iteration #  8     ecut=    50.00 Ry     beta= 0.30
     Davidson diagonalization with overlap
     ethr =  1.79E-09,  avg # of iterations =  2.0

     total cpu time spent up to now is      205.2 secs

     total energy              =    -538.16037471 Ry
     estimated scf accuracy    <       0.00000020 Ry

     iteration #  9     ecut=    50.00 Ry     beta= 0.30
     Davidson diagonalization with overlap
     ethr =  3.20E-10,  avg # of iterations =  2.0

     total cpu time spent up to now is      210.4 secs

     End of self-consistent calculation

          k = 0.0000 0.0000 0.0000 (  3657 PWs)   bands (ev):

   -67.7702 -67.7698 -34.5548 -34.5548 -34.5515 -34.5515 -34.5258 -34.5194
   -16.7624 -16.2403 -13.3401 -13.3401 -13.1718 -13.1718  -3.2350  -3.0944
    -1.7333  -1.2435  -1.2435  -0.8705  -0.8705   0.7043   3.2601   3.2601
     3.3014   3.3015   3.4621   3.6909   3.6909   4.2426   4.6702   4.6702
    10.4539  10.8624  11.1643  15.5634  17.5405  17.5512

          k = 0.0052 0.0000 0.3597 (  3734 PWs)   bands (ev):

   -67.7702 -67.7699 -34.5545 -34.5544 -34.5522 -34.5521 -34.5249 -34.5203
   -16.6352 -16.2619 -13.4094 -13.3444 -13.2984 -13.2307  -2.9463  -2.8508
    -1.4951  -1.2134  -1.0540  -0.9644  -0.6778   0.4319   2.6023   2.7140
     3.1388   3.3661   3.4830   3.5017   4.0055   4.2760   4.6332   4.6623
    10.5677  10.8614  12.1709  16.0384  16.1533  16.2277

          k =-0.0105-0.0000-0.7194 (  3720 PWs)   bands (ev):

   -67.7700 -67.7700 -34.5535 -34.5535 -34.5533 -34.5533 -34.5225 -34.5225
   -16.3925 -16.3925 -13.4569 -13.4569 -13.3164 -13.3164  -2.6158  -2.6158
    -1.2138  -1.2138  -0.7325  -0.7325  -0.3440  -0.3440   2.1149   2.1149
     2.8603   2.8603   3.6257   3.6257   4.0414   4.0414   4.9827   4.9827
    10.7968  10.7968  14.0373  14.0373  15.5853  15.5853

          k = 0.1333 0.3008-0.1454 (  3734 PWs)   bands (ev):

   -67.7702 -67.7699 -34.5545 -34.5544 -34.5522 -34.5521 -34.5249 -34.5203
   -16.6352 -16.2619 -13.4094 -13.3444 -13.2984 -13.2307  -2.9463  -2.8508
    -1.4951  -1.2134  -1.0540  -0.9644  -0.6778   0.4319   2.6023   2.7140
     3.1388   3.3661   3.4830   3.5017   4.0055   4.2760   4.6332   4.6623
    10.5677  10.8614  12.1709  16.0384  16.1533  16.2277

          k = 0.1385 0.3008 0.2143 (  3721 PWs)   bands (ev):

   -67.7702 -67.7699 -34.5551 -34.5537 -34.5531 -34.5513 -34.5247 -34.5204
   -16.6201 -16.2742 -13.3941 -13.3696 -13.3478 -13.1792  -2.9287  -2.8948
    -1.4756  -1.1777  -0.9737  -0.9410  -0.7235   0.4206   2.7099   2.7272
     3.0754   3.2805   3.3013   3.7150   3.8858   4.4117   4.4932   4.6323
    10.5240  10.8855  12.3694  15.7571  16.0189  16.2857

          k = 0.1228 0.3008-0.8648 (  3730 PWs)   bands (ev):

   -67.7701 -67.7700 -34.5549 -34.5543 -34.5528 -34.5518 -34.5232 -34.5217
   -16.4483 -16.3269 -13.4939 -13.4802 -13.3307 -13.2598  -2.5468  -2.5101
    -1.3696  -1.1730  -0.9653  -0.8082  -0.3873  -0.0248   2.1503   2.4008
     2.7341   3.0280   3.2319   3.4701   3.9542   4.2299   4.9370   4.9981
    10.8122  10.9386  13.6596  14.8369  15.3841  15.5304

          k = 0.1281 0.3008-0.5051 (  3728 PWs)   bands (ev):

   -67.7701 -67.7700 -34.5548 -34.5537 -34.5532 -34.5520 -34.5236 -34.5214
   -16.4756 -16.3038 -13.4674 -13.4453 -13.3725 -13.2701  -2.5338  -2.4827
    -1.5052  -1.0877  -0.9497  -0.7809  -0.6361   0.1224   2.0740   2.4043
     2.6815   3.1314   3.2321   3.6475   4.0390   4.1069   4.9269   5.0295
    10.7713  10.9680  13.3082  15.0414  15.4195  15.6278

          k =-0.2666-0.6017 0.2908 (  3720 PWs)   bands (ev):

   -67.7700 -67.7700 -34.5535 -34.5535 -34.5533 -34.5533 -34.5225 -34.5225
   -16.3925 -16.3925 -13.4569 -13.4569 -13.3164 -13.3164  -2.6158  -2.6158
    -1.2138  -1.2138  -0.7325  -0.7325  -0.3440  -0.3440   2.1149   2.1149
     2.8603   2.8603   3.6257   3.6257   4.0414   4.0414   4.9827   4.9827
    10.7968  10.7968  14.0373  14.0373  15.5853  15.5853

          k =-0.2614-0.6017 0.6505 (  3730 PWs)   bands (ev):

   -67.7701 -67.7700 -34.5549 -34.5543 -34.5528 -34.5518 -34.5232 -34.5217
   -16.4483 -16.3269 -13.4939 -13.4802 -13.3307 -13.2598  -2.5468  -2.5101
    -1.3696  -1.1730  -0.9654  -0.8082  -0.3873  -0.0248   2.1503   2.4008
     2.7341   3.0280   3.2319   3.4701   3.9542   4.2299   4.9370   4.9981
    10.8122  10.9386  13.6596  14.8369  15.3841  15.5304

          k =-0.2771-0.6017-0.4286 (  3744 PWs)   bands (ev):

   -67.7701 -67.7700 -34.5555 -34.5548 -34.5527 -34.5511 -34.5234 -34.5213
   -16.4584 -16.3073 -13.5896 -13.4453 -13.3567 -13.1866  -2.6686  -2.4867
    -1.2689  -1.1082  -0.9773  -0.8106  -0.4019   0.1364   2.3024   2.5046
     2.5904   2.9071   2.9313   3.4466   3.8784   4.3527   4.9066   4.9898
    10.7932  11.1032  13.7970  15.0193  15.1411  15.4749

          k = 0.2666 0.0000-0.2908 (  3721 PWs)   bands (ev):

   -67.7702 -67.7699 -34.5551 -34.5537 -34.5531 -34.5513 -34.5247 -34.5204
   -16.6201 -16.2742 -13.3941 -13.3696 -13.3478 -13.1792  -2.9287  -2.8948
    -1.4756  -1.1777  -0.9737  -0.9410  -0.7235   0.4206   2.7099   2.7272
     3.0754   3.2805   3.3013   3.7150   3.8858   4.4117   4.4932   4.6323
    10.5240  10.8855  12.3694  15.7571  16.0189  16.2857

          k = 0.2718 0.0000 0.0689 (  3696 PWs)   bands (ev):

   -67.7702 -67.7699 -34.5543 -34.5543 -34.5520 -34.5520 -34.5249 -34.5203
   -16.6896 -16.3207 -13.3164 -13.3164 -13.1975 -13.1974  -3.2799  -3.2287
    -1.2611  -1.1749  -1.1749  -0.9051  -0.9051   0.4344   3.2267   3.2267
     3.2983   3.2983   3.5733   3.7998   3.7998   4.0982   4.5092   4.5092
    10.1465  10.6149  12.0239  14.9368  17.1287  17.3326

          k = 0.2561-0.0000-1.0102 (  3726 PWs)   bands (ev):

   -67.7701 -67.7700 -34.5548 -34.5535 -34.5530 -34.5520 -34.5236 -34.5215
   -16.5404 -16.3578 -13.4494 -13.3150 -13.2757 -13.2549  -3.0114  -2.9469
    -1.1712  -1.1102  -0.9562  -0.9187  -0.5702   0.0513   2.6288   2.8044
     3.1254   3.1275   3.3800   3.8788   3.9628   4.0570   4.5542   4.5795
    10.5018  10.6482  13.1131  14.9941  15.7368  16.1930

          k = 0.2614-0.0000-0.6505 (  3736 PWs)   bands (ev):

   -67.7701 -67.7700 -34.5548 -34.5544 -34.5529 -34.5518 -34.5232 -34.5217
   -16.4410 -16.3343 -13.5473 -13.4079 -13.3828 -13.2245  -2.6611  -2.5325
    -1.3202  -0.9659  -0.9082  -0.8364  -0.4983   0.0246   2.1971   2.2056
     2.8489   2.9212   3.0876   3.7281   3.9010   4.2099   4.9304   4.9960
    10.7592  10.9847  13.7580  14.7865  15.2854  15.4049

          k =-0.1333-0.9025 0.1454 (  3730 PWs)   bands (ev):

   -67.7701 -67.7700 -34.5549 -34.5543 -34.5528 -34.5518 -34.5232 -34.5217
   -16.4483 -16.3269 -13.4939 -13.4802 -13.3307 -13.2598  -2.5468  -2.5101
    -1.3696  -1.1730  -0.9653  -0.8082  -0.3873  -0.0248   2.1503   2.4008
     2.7341   3.0280   3.2319   3.4701   3.9542   4.2299   4.9370   4.9981
    10.8122  10.9386  13.6596  14.8369  15.3841  15.5304

          k =-0.1281-0.9025 0.5051 (  3726 PWs)   bands (ev):

   -67.7701 -67.7700 -34.5548 -34.5535 -34.5530 -34.5520 -34.5236 -34.5215
   -16.5404 -16.3578 -13.4494 -13.3150 -13.2757 -13.2549  -3.0114  -2.9469
    -1.1712  -1.1102  -0.9562  -0.9186  -0.5702   0.0513   2.6288   2.8044
     3.1254   3.1275   3.3800   3.8788   3.9628   4.0570   4.5542   4.5795
    10.5018  10.6482  13.1131  14.9941  15.7368  16.1930

          k =-0.1438-0.9025-0.5740 (  3739 PWs)   bands (ev):

   -67.7701 -67.7700 -34.5548 -34.5542 -34.5527 -34.5517 -34.5233 -34.5217
   -16.5055 -16.3901 -13.4360 -13.3815 -13.2938 -13.1915  -3.0109  -2.9651
    -1.2424  -1.0003  -0.9579  -0.8364  -0.5189  -0.0265   2.7903   2.8686
     2.8748   3.1343   3.4250   3.6759   3.9076   4.2812   4.4578   4.5335
    10.4813  10.6748  13.5036  14.5386  15.8320  16.0500

          k =-0.1385-0.9025-0.2143 (  3746 PWs)   bands (ev):

   -67.7700 -67.7700 -34.5549 -34.5549 -34.5521 -34.5521 -34.5224 -34.5224
   -16.3855 -16.3855 -13.5111 -13.5111 -13.2760 -13.2760  -2.5473  -2.5473
    -1.2031  -1.2031  -0.9162  -0.9161  -0.1879  -0.1879   2.3193   2.3193
     2.8718   2.8718   3.2211   3.2211   4.1248   4.1248   4.9558   4.9558
    10.8851  10.8851  14.4664  14.4664  15.1439  15.1439

          k =-0.0000-0.6017-0.0000 (  3728 PWs)   bands (ev):

   -67.7701 -67.7700 -34.5548 -34.5537 -34.5532 -34.5520 -34.5236 -34.5214
   -16.4756 -16.3038 -13.4674 -13.4452 -13.3725 -13.2701  -2.5338  -2.4827
    -1.5052  -1.0877  -0.9497  -0.7809  -0.6362   0.1224   2.0740   2.4043
     2.6815   3.1314   3.2321   3.6475   4.0390   4.1069   4.9269   5.0295
    10.7713  10.9680  13.3082  15.0414  15.4195  15.6278

          k = 0.0052-0.6017 0.3597 (  3736 PWs)   bands (ev):

   -67.7701 -67.7700 -34.5548 -34.5544 -34.5529 -34.5518 -34.5232 -34.5217
   -16.4410 -16.3343 -13.5473 -13.4079 -13.3828 -13.2244  -2.6611  -2.5325
    -1.3202  -0.9659  -0.9082  -0.8364  -0.4983   0.0246   2.1971   2.2056
     2.8489   2.9212   3.0876   3.7281   3.9010   4.2099   4.9304   4.9960
    10.7592  10.9847  13.7580  14.7865  15.2854  15.4049

          k =-0.0105-0.6017-0.7194 (  3746 PWs)   bands (ev):

   -67.7700 -67.7700 -34.5549 -34.5549 -34.5521 -34.5521 -34.5224 -34.5224
   -16.3855 -16.3855 -13.5111 -13.5111 -13.2760 -13.2760  -2.5473  -2.5473
    -1.2031  -1.2031  -0.9161  -0.9161  -0.1879  -0.1879   2.3193   2.3193
     2.8718   2.8718   3.2211   3.2211   4.1248   4.1248   4.9558   4.9558
    10.8851  10.8851  14.4664  14.4664  15.1439  15.1439

          k =-0.5332-0.0000 0.5816 (  3744 PWs)   bands (ev):

   -67.7701 -67.7700 -34.5555 -34.5548 -34.5527 -34.5511 -34.5234 -34.5213
   -16.4584 -16.3073 -13.5896 -13.4453 -13.3567 -13.1866  -2.6686  -2.4867
    -1.2689  -1.1082  -0.9773  -0.8106  -0.4019   0.1365   2.3024   2.5046
     2.5904   2.9071   2.9313   3.4466   3.8784   4.3527   4.9066   4.9898
    10.7932  11.1032  13.7970  15.0193  15.1411  15.4749

          k =-0.5280 0.0000 0.9413 (  3739 PWs)   bands (ev):

   -67.7701 -67.7700 -34.5548 -34.5542 -34.5527 -34.5517 -34.5233 -34.5217
   -16.5055 -16.3901 -13.4360 -13.3815 -13.2938 -13.1915  -3.0109  -2.9651
    -1.2424  -1.0003  -0.9579  -0.8364  -0.5189  -0.0264   2.7903   2.8686
     2.8748   3.1343   3.4250   3.6759   3.9076   4.2812   4.4578   4.5335
    10.4813  10.6748  13.5036  14.5386  15.8320  16.0500

          k =-0.5437-0.0000-0.1378 (  3712 PWs)   bands (ev):

   -67.7700 -67.7700 -34.5532 -34.5532 -34.5532 -34.5532 -34.5227 -34.5227
   -16.5090 -16.5090 -13.2579 -13.2579 -13.2579 -13.2579  -3.3238  -3.3238
    -1.0233  -1.0233  -1.0233  -1.0233  -0.3373  -0.3373   3.2387   3.2387
     3.2387   3.2387   3.8271   3.8271   4.1342   4.1342   4.1342   4.1342
    10.1979  10.1979  13.4734  13.4734  17.4112  17.4112

     the Fermi energy is     6.9881 ev

!    total energy              =    -538.16037478 Ry
     estimated scf accuracy    <          1.3E-09 Ry
     smearing contrib. (-TS)   =      -0.00000000 Ry
     internal energy E=F+TS    =    -538.16037478 Ry

     The total energy is F=E-TS. E is the sum of the following terms:
     one-electron contribution =    -249.40290675 Ry
     hartree contribution      =     150.28419637 Ry
     xc contribution           =     -88.22205693 Ry
     ewald contribution        =    -281.45333330 Ry
     one-center paw contrib.   =     -69.36627416 Ry

     convergence has been achieved in   9 iterations

     Forces acting on atoms (cartesian axes, Ry/au):

     atom    1 type  1   force =    -0.00000000    0.00000000    0.00000000
     atom    2 type  1   force =     0.00000000    0.00000000   -0.00000000
     atom    3 type  2   force =     0.00000000   -0.00000026   -0.00000000
     atom    4 type  2   force =     0.00000000    0.00000026   -0.00000000
     atom    5 type  3   force =    -0.00115187    0.00270545    0.00454221
     atom    6 type  3   force =     0.00000000   -0.00541068    0.00000000
     atom    7 type  3   force =    -0.00115187   -0.00270545    0.00454221
     atom    8 type  3   force =     0.00115187   -0.00270545   -0.00454221
     atom    9 type  3   force =     0.00000000    0.00541068   -0.00000000
     atom   10 type  3   force =     0.00115187    0.00270545   -0.00454221

     Total force =     0.013254     Total SCF correction =     0.000125


     Computing stress (Cartesian axis) and pressure

          total   stress  (Ry/bohr**3)                   (kbar)     P=        3.05
   0.00008341   0.00000000   0.00002464           12.27        0.00        3.62
  -0.00000000  -0.00001375   0.00000000           -0.00       -2.02        0.00
   0.00002464   0.00000000  -0.00000752            3.62        0.00       -1.11

     Energy error            =      2.2E-03
     Gradient error          =      5.4E-03
     Cell gradient error     =      8.3E-05


     number of scf cycles    =   3
     number of bfgs steps    =   2

     enthalpy old            =    -538.1582193650 Ry
     enthalpy new            =    -538.1603747813 Ry

     CASE: enthalpy_new < enthalpy_old

     new trust radius        =       0.0226908534 bohr
     new conv_thr            =       0.0000000054 Ry

     new unit-cell volume =    649.89062 a.u.^3 (    96.30385 Ang^3 )
     density =      2.90757 g/cm^3

CELL_PARAMETERS (angstrom)
   5.228652845  -2.346131814  -0.071716429
   5.228652845   2.346131814  -0.071716429
   4.229955608   0.000000000   3.867269119

ATOMIC_POSITIONS (angstrom)
Mg            7.3436306486        0.0000000000        1.8619181301
Mg           -0.0000000000        0.0000000000        0.0000000000
C            11.0154459729        0.0000000433        2.7928771951
C             3.6718153243       -0.0000000433        0.9309590650
O             6.0623689014        1.6987504958        1.7776868312
O             5.7867931282       -1.0513690515        2.8645936245
O             8.1773467053        0.6473813187        3.7113213906
O             8.6248923958       -1.6987504958        1.9461494290
O             8.9004681690        1.0513690515        0.8592426356
O             6.5099145920       -0.6473813187        0.0125148695



     Writing output data file ./out/CMgO3.save/
     NEW-OLD atomic charge density approx. for the potential

     Check: negative core charge=   -0.000005
     extrapolated charge   64.44847, renormalised to   64.00000

     total cpu time spent up to now is      224.6 secs

     Self-consistent Calculation

     iteration #  1     ecut=    50.00 Ry     beta= 0.30
     Davidson diagonalization with overlap
     ethr =  1.00E-06,  avg # of iterations =  6.5

     total cpu time spent up to now is      233.5 secs

     total energy              =    -538.15365528 Ry
     estimated scf accuracy    <       0.00459711 Ry

     iteration #  2     ecut=    50.00 Ry     beta= 0.30
     Davidson diagonalization with overlap
     ethr =  7.18E-06,  avg # of iterations =  3.5

     total cpu time spent up to now is      239.8 secs

     total energy              =    -538.16106717 Ry
     estimated scf accuracy    <       0.00306232 Ry

     iteration #  3     ecut=    50.00 Ry     beta= 0.30
     Davidson diagonalization with overlap
     ethr =  4.78E-06,  avg # of iterations =  1.2

     total cpu time spent up to now is      243.6 secs

     total energy              =    -538.16048306 Ry
     estimated scf accuracy    <       0.00139352 Ry

     iteration #  4     ecut=    50.00 Ry     beta= 0.30
     Davidson diagonalization with overlap
     ethr =  2.18E-06,  avg # of iterations =  2.0

     total cpu time spent up to now is      248.1 secs

     total energy              =    -538.16068557 Ry
     estimated scf accuracy    <       0.00009819 Ry

     iteration #  5     ecut=    50.00 Ry     beta= 0.30
     Davidson diagonalization with overlap
     ethr =  1.53E-07,  avg # of iterations =  1.8

     total cpu time spent up to now is      252.2 secs

     total energy              =    -538.16058847 Ry
     estimated scf accuracy    <       0.00016039 Ry

     iteration #  6     ecut=    50.00 Ry     beta= 0.30
     Davidson diagonalization with overlap
     ethr =  1.53E-07,  avg # of iterations =  2.0

     total cpu time spent up to now is      257.4 secs

     total energy              =    -538.16062714 Ry
     estimated scf accuracy    <       0.00000052 Ry

     iteration #  7     ecut=    50.00 Ry     beta= 0.30
     Davidson diagonalization with overlap
     ethr =  8.16E-10,  avg # of iterations =  5.5

     total cpu time spent up to now is      265.1 secs

     total energy              =    -538.16062769 Ry
     estimated scf accuracy    <       0.00000885 Ry

     iteration #  8     ecut=    50.00 Ry     beta= 0.30
     Davidson diagonalization with overlap
     ethr =  8.16E-10,  avg # of iterations =  2.0

     total cpu time spent up to now is      270.0 secs

     total energy              =    -538.16062607 Ry
     estimated scf accuracy    <       0.00000380 Ry

     iteration #  9     ecut=    50.00 Ry     beta= 0.30
     Davidson diagonalization with overlap
     ethr =  8.16E-10,  avg # of iterations =  3.0

     total cpu time spent up to now is      276.1 secs

     total energy              =    -538.16062665 Ry
     estimated scf accuracy    <       0.00000009 Ry

     iteration # 10     ecut=    50.00 Ry     beta= 0.30
     Davidson diagonalization with overlap
     ethr =  1.40E-10,  avg # of iterations =  2.0

     total cpu time spent up to now is      280.9 secs

     total energy              =    -538.16062666 Ry
     estimated scf accuracy    <       0.00000001 Ry

     iteration # 11     ecut=    50.00 Ry     beta= 0.30
     Davidson diagonalization with overlap
     ethr =  1.81E-11,  avg # of iterations =  2.0

     total cpu time spent up to now is      285.8 secs

     End of self-consistent calculation

          k = 0.0000 0.0000 0.0000 (  3657 PWs)   bands (ev):

   -67.8936 -67.8932 -34.6772 -34.6772 -34.6742 -34.6742 -34.6480 -34.6418
   -16.8457 -16.3421 -13.4196 -13.4196 -13.2564 -13.2564  -3.2945  -3.1446
    -1.7958  -1.3042  -1.3042  -0.9377  -0.9377   0.5982   3.1903   3.1904
     3.2340   3.2341   3.4210   3.6202   3.6203   4.1851   4.5851   4.5851
    10.4176  10.7899  11.0373  15.4496  17.4086  17.4987

          k = 0.0049 0.0000 0.3592 (  3734 PWs)   bands (ev):

   -67.8935 -67.8933 -34.6770 -34.6769 -34.6748 -34.6747 -34.6471 -34.6426
   -16.7221 -16.3623 -13.4878 -13.4241 -13.3805 -13.3137  -3.0044  -2.9021
    -1.5562  -1.2797  -1.1191  -1.0313  -0.7500   0.3326   2.5381   2.6487
     3.0735   3.2955   3.4112   3.4306   3.9487   4.1962   4.5554   4.6026
    10.5303  10.7992  12.0400  15.8900  16.0375  16.1151

          k =-0.0099-0.0000-0.7184 (  3720 PWs)   bands (ev):

   -67.8934 -67.8934 -34.6761 -34.6761 -34.6758 -34.6758 -34.6448 -34.6448
   -16.4873 -16.4873 -13.5351 -13.5351 -13.3971 -13.3971  -2.6697  -2.6697
    -1.2777  -1.2777  -0.8063  -0.8063  -0.4266  -0.4266   2.0526   2.0526
     2.7965   2.7965   3.5491   3.5491   3.9652   3.9652   4.9213   4.9213
    10.7535  10.7535  13.8957  13.8957  15.4975  15.4975

          k = 0.1328 0.3005-0.1453 (  3734 PWs)   bands (ev):

   -67.8935 -67.8933 -34.6770 -34.6769 -34.6748 -34.6747 -34.6471 -34.6426
   -16.7221 -16.3623 -13.4878 -13.4241 -13.3805 -13.3137  -3.0044  -2.9021
    -1.5562  -1.2797  -1.1191  -1.0313  -0.7500   0.3326   2.5381   2.6487
     3.0735   3.2955   3.4112   3.4306   3.9487   4.1962   4.5554   4.6026
    10.5303  10.7992  12.0400  15.8900  16.0375  16.1151

          k = 0.1378 0.3005 0.2139 (  3721 PWs)   bands (ev):

   -67.8935 -67.8933 -34.6776 -34.6762 -34.6757 -34.6740 -34.6469 -34.6427
   -16.7076 -16.3742 -13.4722 -13.4492 -13.4281 -13.2639  -2.9873  -2.9458
    -1.5356  -1.2457  -1.0417  -1.0085  -0.7946   0.3207   2.6458   2.6598
     3.0137   3.2104   3.2314   3.6416   3.8244   4.3297   4.4254   4.5735
    10.4826  10.8237  12.2422  15.6118  15.8924  16.2157

          k = 0.1230 0.3005-0.8636 (  3730 PWs)   bands (ev):

   -67.8935 -67.8934 -34.6774 -34.6768 -34.6753 -34.6745 -34.6455 -34.6440
   -16.5413 -16.4244 -13.5699 -13.5565 -13.4117 -13.3429  -2.6023  -2.5663
    -1.4311  -1.2385  -1.0358  -0.8804  -0.4687  -0.1140   2.0898   2.3370
     2.6686   2.9600   3.1624   3.3991   3.8783   4.1499   4.8760   4.9381
    10.7718  10.8911  13.5312  14.7186  15.2540  15.3926

          k = 0.1279 0.3005-0.5045 (  3728 PWs)   bands (ev):

   -67.8935 -67.8934 -34.6772 -34.6763 -34.6757 -34.6747 -34.6458 -34.6437
   -16.5675 -16.4020 -13.5448 -13.5222 -13.4529 -13.3525  -2.5897  -2.5391
    -1.5643  -1.1532  -1.0193  -0.8555  -0.7111   0.0294   2.0142   2.3399
     2.6182   3.0614   3.1645   3.5702   3.9620   4.0288   4.8659   4.9680
    10.7332  10.9190  13.1769  14.9413  15.2547  15.5316

          k =-0.2657-0.6009 0.2906 (  3720 PWs)   bands (ev):

   -67.8934 -67.8934 -34.6761 -34.6761 -34.6758 -34.6758 -34.6448 -34.6448
   -16.4873 -16.4873 -13.5351 -13.5351 -13.3971 -13.3971  -2.6697  -2.6697
    -1.2777  -1.2777  -0.8063  -0.8063  -0.4266  -0.4266   2.0526   2.0526
     2.7965   2.7965   3.5491   3.5491   3.9652   3.9652   4.9213   4.9213
    10.7535  10.7535  13.8957  13.8957  15.4975  15.4975

          k =-0.2607-0.6009 0.6498 (  3730 PWs)   bands (ev):

   -67.8935 -67.8934 -34.6774 -34.6768 -34.6753 -34.6745 -34.6455 -34.6440
   -16.5413 -16.4244 -13.5699 -13.5565 -13.4117 -13.3429  -2.6023  -2.5663
    -1.4311  -1.2385  -1.0358  -0.8804  -0.4688  -0.1140   2.0898   2.3370
     2.6686   2.9600   3.1624   3.3991   3.8783   4.1499   4.8760   4.9381
    10.7718  10.8911  13.5312  14.7186  15.2540  15.3926

          k =-0.2755-0.6009-0.4278 (  3744 PWs)   bands (ev):

   -67.8935 -67.8934 -34.6779 -34.6773 -34.6752 -34.6738 -34.6457 -34.6436
   -16.5513 -16.4055 -13.6627 -13.5222 -13.4376 -13.2712  -2.7200  -2.5461
    -1.3313  -1.1777  -1.0485  -0.8831  -0.4815   0.0445   2.2330   2.4420
     2.5237   2.8415   2.8704   3.3812   3.8030   4.2707   4.8490   4.9301
    10.7524  11.0544  13.6816  14.8444  14.9950  15.3907

          k = 0.2657 0.0000-0.2906 (  3721 PWs)   bands (ev):

   -67.8935 -67.8933 -34.6776 -34.6762 -34.6757 -34.6740 -34.6469 -34.6427
   -16.7076 -16.3742 -13.4722 -13.4492 -13.4281 -13.2639  -2.9873  -2.9458
    -1.5356  -1.2457  -1.0417  -1.0085  -0.7946   0.3207   2.6458   2.6598
     3.0137   3.2104   3.2314   3.6416   3.8244   4.3297   4.4254   4.5735
    10.4826  10.8237  12.2422  15.6118  15.8924  16.2157

          k = 0.2706 0.0000 0.0686 (  3696 PWs)   bands (ev):

   -67.8935 -67.8933 -34.6768 -34.6768 -34.6746 -34.6746 -34.6471 -34.6427
   -16.7754 -16.4195 -13.3967 -13.3967 -13.2813 -13.2813  -3.3367  -3.2783
    -1.3325  -1.2372  -1.2372  -0.9725  -0.9725   0.3313   3.1583   3.1583
     3.2312   3.2312   3.5303   3.7282   3.7282   4.0454   4.4269   4.4269
    10.0920  10.5473  11.9092  14.8104  17.0331  17.2025

          k = 0.2558-0.0000-1.0089 (  3726 PWs)   bands (ev):

   -67.8935 -67.8934 -34.6772 -34.6760 -34.6755 -34.6747 -34.6459 -34.6438
   -16.6307 -16.4547 -13.5263 -13.3954 -13.3580 -13.3377  -3.0661  -2.9990
    -1.2354  -1.1750  -1.0231  -0.9927  -0.6476  -0.0419   2.5664   2.7379
     3.0574   3.0592   3.3132   3.8043   3.8879   3.9957   4.4973   4.5078
    10.4547  10.5916  12.9817  14.8706  15.5846  16.0844

          k = 0.2607-0.0000-0.6498 (  3736 PWs)   bands (ev):

   -67.8935 -67.8934 -34.6773 -34.6769 -34.6754 -34.6744 -34.6455 -34.6440
   -16.5344 -16.4314 -13.6221 -13.4859 -13.4631 -13.3080  -2.7130  -2.5899
    -1.3826  -1.0346  -0.9802  -0.9091  -0.5764  -0.0655   2.1363   2.1398
     2.7877   2.8544   3.0169   3.6568   3.8232   4.1312   4.8716   4.9352
    10.7181  10.9376  13.6289  14.6283  15.1567  15.3283

          k =-0.1328-0.9014 0.1453 (  3730 PWs)   bands (ev):

   -67.8935 -67.8934 -34.6774 -34.6768 -34.6753 -34.6745 -34.6455 -34.6440
   -16.5413 -16.4244 -13.5699 -13.5565 -13.4117 -13.3429  -2.6023  -2.5663
    -1.4311  -1.2385  -1.0358  -0.8805  -0.4688  -0.1140   2.0898   2.3370
     2.6686   2.9600   3.1624   3.3991   3.8783   4.1499   4.8760   4.9381
    10.7718  10.8911  13.5312  14.7186  15.2540  15.3926

          k =-0.1279-0.9014 0.5045 (  3726 PWs)   bands (ev):

   -67.8935 -67.8934 -34.6772 -34.6760 -34.6755 -34.6747 -34.6459 -34.6438
   -16.6307 -16.4547 -13.5263 -13.3954 -13.3580 -13.3377  -3.0661  -2.9990
    -1.2354  -1.1750  -1.0231  -0.9927  -0.6476  -0.0419   2.5664   2.7379
     3.0574   3.0592   3.3132   3.8043   3.8879   3.9957   4.4973   4.5077
    10.4547  10.5916  12.9817  14.8706  15.5846  16.0844

          k =-0.1427-0.9014-0.5731 (  3739 PWs)   bands (ev):

   -67.8935 -67.8934 -34.6773 -34.6767 -34.6753 -34.6743 -34.6455 -34.6440
   -16.5971 -16.4858 -13.5132 -13.4600 -13.3757 -13.2758  -3.0626  -3.0205
    -1.3043  -1.0689  -1.0272  -0.9072  -0.6002  -0.1187   2.7269   2.7994
     2.8110   3.0667   3.3560   3.6112   3.8365   4.2013   4.3996   4.4748
    10.4315  10.6197  13.3772  14.3995  15.6836  15.9531

          k =-0.1378-0.9014-0.2139 (  3746 PWs)   bands (ev):

   -67.8934 -67.8934 -34.6774 -34.6774 -34.6747 -34.6747 -34.6447 -34.6447
   -16.4809 -16.4809 -13.5863 -13.5863 -13.3587 -13.3587  -2.6029  -2.6029
    -1.2684  -1.2684  -0.9868  -0.9868  -0.2740  -0.2740   2.2569   2.2569
     2.8028   2.8028   3.1556   3.1556   4.0463   4.0463   4.8962   4.8962
    10.8407  10.8407  14.3570  14.3570  14.9795  14.9795

          k =-0.0000-0.6009-0.0000 (  3728 PWs)   bands (ev):

   -67.8935 -67.8934 -34.6772 -34.6763 -34.6757 -34.6747 -34.6458 -34.6437
   -16.5675 -16.4020 -13.5448 -13.5222 -13.4529 -13.3525  -2.5897  -2.5391
    -1.5643  -1.1532  -1.0193  -0.8555  -0.7111   0.0294   2.0142   2.3399
     2.6182   3.0614   3.1645   3.5702   3.9620   4.0288   4.8659   4.9680
    10.7332  10.9190  13.1769  14.9413  15.2547  15.5316

          k = 0.0049-0.6009 0.3592 (  3736 PWs)   bands (ev):

   -67.8935 -67.8934 -34.6773 -34.6769 -34.6754 -34.6744 -34.6455 -34.6440
   -16.5344 -16.4314 -13.6221 -13.4859 -13.4631 -13.3079  -2.7130  -2.5899
    -1.3826  -1.0346  -0.9802  -0.9091  -0.5764  -0.0655   2.1363   2.1398
     2.7877   2.8544   3.0169   3.6568   3.8232   4.1312   4.8716   4.9352
    10.7181  10.9376  13.6289  14.6283  15.1567  15.3283

          k =-0.0099-0.6009-0.7184 (  3746 PWs)   bands (ev):

   -67.8934 -67.8934 -34.6774 -34.6774 -34.6747 -34.6747 -34.6447 -34.6447
   -16.4809 -16.4809 -13.5863 -13.5863 -13.3587 -13.3587  -2.6029  -2.6029
    -1.2684  -1.2684  -0.9868  -0.9868  -0.2740  -0.2740   2.2569   2.2569
     2.8028   2.8028   3.1556   3.1556   4.0463   4.0463   4.8962   4.8962
    10.8407  10.8407  14.3570  14.3570  14.9795  14.9795

          k =-0.5313-0.0000 0.5812 (  3744 PWs)   bands (ev):

   -67.8935 -67.8934 -34.6779 -34.6773 -34.6752 -34.6738 -34.6457 -34.6436
   -16.5513 -16.4055 -13.6627 -13.5222 -13.4376 -13.2712  -2.7200  -2.5461
    -1.3313  -1.1777  -1.0485  -0.8831  -0.4815   0.0445   2.2330   2.4419
     2.5237   2.8415   2.8704   3.3812   3.8030   4.2707   4.8490   4.9301
    10.7524  11.0544  13.6816  14.8444  14.9949  15.3907

          k =-0.5264 0.0000 0.9403 (  3739 PWs)   bands (ev):

   -67.8935 -67.8934 -34.6773 -34.6767 -34.6753 -34.6743 -34.6455 -34.6440
   -16.5971 -16.4858 -13.5132 -13.4600 -13.3757 -13.2758  -3.0626  -3.0205
    -1.3043  -1.0689  -1.0272  -0.9072  -0.6002  -0.1186   2.7269   2.7994
     2.8110   3.0667   3.3560   3.6112   3.8365   4.2013   4.3996   4.4748
    10.4315  10.6197  13.3772  14.3995  15.6836  15.9531

          k =-0.5412-0.0000-0.1372 (  3712 PWs)   bands (ev):

   -67.8934 -67.8934 -34.6757 -34.6757 -34.6757 -34.6757 -34.6449 -34.6449
   -16.6010 -16.6010 -13.3399 -13.3399 -13.3399 -13.3399  -3.3757  -3.3757
    -1.0890  -1.0890  -1.0890  -1.0890  -0.4266  -0.4266   3.1717   3.1717
     3.1717   3.1717   3.7799   3.7799   4.0582   4.0582   4.0582   4.0582
    10.1387  10.1387  13.3494  13.3494  17.2981  17.2981

     the Fermi energy is     6.9267 ev

!    total energy              =    -538.16062667 Ry
     estimated scf accuracy    <          1.1E-09 Ry
     smearing contrib. (-TS)   =      -0.00000000 Ry
     internal energy E=F+TS    =    -538.16062667 Ry

     The total energy is F=E-TS. E is the sum of the following terms:
     one-electron contribution =    -251.02717849 Ry
     hartree contribution      =     150.89331879 Ry
     xc contribution           =     -88.21764662 Ry
     ewald contribution        =    -280.44296529 Ry
     one-center paw contrib.   =     -69.36615507 Ry

     convergence has been achieved in  11 iterations

     Forces acting on atoms (cartesian axes, Ry/au):

     atom    1 type  1   force =     0.00000000    0.00000000   -0.00000000
     atom    2 type  1   force =    -0.00000000    0.00000000    0.00000000
     atom    3 type  2   force =     0.00000000    0.00000046    0.00000000
     atom    4 type  2   force =     0.00000000   -0.00000046    0.00000000
     atom    5 type  3   force =     0.00025266   -0.00059390   -0.00099727
     atom    6 type  3   force =     0.00000000    0.00118732    0.00000000
     atom    7 type  3   force =     0.00025266    0.00059390   -0.00099727
     atom    8 type  3   force =    -0.00025266    0.00059390    0.00099727
     atom    9 type  3   force =     0.00000000   -0.00118732    0.00000000
     atom   10 type  3   force =    -0.00025266   -0.00059390    0.00099727

     Total force =     0.002909     Total SCF correction =     0.000069


     Computing stress (Cartesian axis) and pressure

          total   stress  (Ry/bohr**3)                   (kbar)     P=        1.79
   0.00002632   0.00000000   0.00000556            3.87        0.00        0.82
  -0.00000000   0.00000438   0.00000000           -0.00        0.64        0.00
   0.00000556   0.00000000   0.00000580            0.82        0.00        0.85

     Energy error            =      2.5E-04
     Gradient error          =      1.2E-03
     Cell gradient error     =      2.6E-05


     number of scf cycles    =   4
     number of bfgs steps    =   3

     enthalpy old            =    -538.1603747813 Ry
     enthalpy new            =    -538.1606266734 Ry

     CASE: enthalpy_new < enthalpy_old

     new trust radius        =       0.0059948401 bohr
     new conv_thr            =       0.0000000012 Ry

     new unit-cell volume =    650.84187 a.u.^3 (    96.44481 Ang^3 )
     density =      2.90332 g/cm^3

CELL_PARAMETERS (angstrom)
   5.234631074  -2.346425821  -0.070376108
   5.234631074   2.346425821  -0.070376108
   4.235808473   0.000000000   3.869103751

ATOMIC_POSITIONS (angstrom)
Mg            7.3525353103        0.0000000000        1.8641757672
Mg           -0.0000000000        0.0000000000        0.0000000000
C            11.0288029654        0.0000003040        2.7962636507
C             3.6762676551       -0.0000003040        0.9320878836
O             6.0697950720        1.6989330343        1.7795455281
O             5.7941718914       -1.0514403943        2.8666397590
O             8.1876993082        0.6474927864        3.7140974036
O             8.6352755486       -1.6989330343        1.9488060062
O             8.9108987292        1.0514403943        0.8617117753
O             6.5173713125       -0.6474927864        0.0142541308



     Writing output data file ./out/CMgO3.save/
     NEW-OLD atomic charge density approx. for the potential

     Check: negative core charge=   -0.000005
     extrapolated charge   64.09266, renormalised to   64.00000

     total cpu time spent up to now is      300.2 secs

     Self-consistent Calculation

     iteration #  1     ecut=    50.00 Ry     beta= 0.30
     Davidson diagonalization with overlap
     ethr =  1.00E-06,  avg # of iterations =  3.0

     total cpu time spent up to now is      306.1 secs

     total energy              =    -538.16034704 Ry
     estimated scf accuracy    <       0.00020990 Ry

     iteration #  2     ecut=    50.00 Ry     beta= 0.30
     Davidson diagonalization with overlap
     ethr =  3.28E-07,  avg # of iterations =  3.0

     total cpu time spent up to now is      311.8 secs

     total energy              =    -538.16066085 Ry
     estimated scf accuracy    <       0.00011263 Ry

     iteration #  3     ecut=    50.00 Ry     beta= 0.30
     Davidson diagonalization with overlap
     ethr =  1.76E-07,  avg # of iterations =  1.0

     total cpu time spent up to now is      315.4 secs

     total energy              =    -538.16064017 Ry
     estimated scf accuracy    <       0.00004879 Ry

     iteration #  4     ecut=    50.00 Ry     beta= 0.30
     Davidson diagonalization with overlap
     ethr =  7.62E-08,  avg # of iterations =  2.0

     total cpu time spent up to now is      320.0 secs

     total energy              =    -538.16064694 Ry
     estimated scf accuracy    <       0.00000376 Ry

     iteration #  5     ecut=    50.00 Ry     beta= 0.30
     Davidson diagonalization with overlap
     ethr =  5.88E-09,  avg # of iterations =  1.7

     total cpu time spent up to now is      324.0 secs

     total energy              =    -538.16064291 Ry
     estimated scf accuracy    <       0.00000525 Ry

     iteration #  6     ecut=    50.00 Ry     beta= 0.30
     Davidson diagonalization with overlap
     ethr =  5.88E-09,  avg # of iterations =  2.0

     total cpu time spent up to now is      329.2 secs

     total energy              =    -538.16064459 Ry
     estimated scf accuracy    <       0.00000017 Ry

     iteration #  7     ecut=    50.00 Ry     beta= 0.30
     Davidson diagonalization with overlap
     ethr =  2.72E-10,  avg # of iterations =  3.0

     total cpu time spent up to now is      334.0 secs

     total energy              =    -538.16064458 Ry
     estimated scf accuracy    <       0.00000023 Ry

     iteration #  8     ecut=    50.00 Ry     beta= 0.30
     Davidson diagonalization with overlap
     ethr =  2.72E-10,  avg # of iterations =  1.0

     total cpu time spent up to now is      337.6 secs

     total energy              =    -538.16064452 Ry
     estimated scf accuracy    <       0.00000014 Ry

     iteration #  9     ecut=    50.00 Ry     beta= 0.30
     Davidson diagonalization with overlap
     ethr =  2.20E-10,  avg # of iterations =  2.0

[...]
        k(   22) = (  -0.5301391  -0.0000000   0.5821091), wk =   0.0312500
        k(   23) = (  -0.5256258   0.0000000   0.9415142), wk =   0.0625000
        k(   24) = (  -0.5391655  -0.0000000  -0.1367009), wk =   0.0312500

     Dense  grid:    87967 G-vectors     FFT dimensions: (  72,  72,  72)

     Smooth grid:    31147 G-vectors     FFT dimensions: (  50,  50,  50)

     Estimated max dynamical RAM per process >      76.21 MB

     Estimated total dynamical RAM >     609.69 MB

     Check: negative core charge=   -0.000004

     Initial potential from superposition of free atoms

     starting charge   63.39945, renormalised to   64.00000
     Starting wfcs are   42 randomized atomic wfcs
     Checking if some PAW data can be deallocated... 

     total cpu time spent up to now is      559.9 secs

     Self-consistent Calculation

     iteration #  1     ecut=    50.00 Ry     beta= 0.30
     Davidson diagonalization with overlap
     c_bands:  1 eigenvalues not converged
     c_bands:  3 eigenvalues not converged
     c_bands:  1 eigenvalues not converged
     c_bands:  1 eigenvalues not converged
     ethr =  1.00E-06,  avg # of iterations = 17.0

     total cpu time spent up to now is      576.9 secs

     total energy              =    -538.03383484 Ry
     estimated scf accuracy    <       1.28394184 Ry

     iteration #  2     ecut=    50.00 Ry     beta= 0.30
     Davidson diagonalization with overlap
     ethr =  2.01E-03,  avg # of iterations =  2.0

     total cpu time spent up to now is      582.1 secs

     total energy              =    -538.14144689 Ry
     estimated scf accuracy    <       0.13690279 Ry

     iteration #  3     ecut=    50.00 Ry     beta= 0.30
     Davidson diagonalization with overlap
     ethr =  2.14E-04,  avg # of iterations =  2.1

     total cpu time spent up to now is      587.4 secs

     total energy              =    -538.15814601 Ry
     estimated scf accuracy    <       0.03150188 Ry

     iteration #  4     ecut=    50.00 Ry     beta= 0.30
     Davidson diagonalization with overlap
     ethr =  4.92E-05,  avg # of iterations =  2.0

     total cpu time spent up to now is      592.2 secs

     total energy              =    -538.15943736 Ry
     estimated scf accuracy    <       0.00476439 Ry

     iteration #  5     ecut=    50.00 Ry     beta= 0.30
     Davidson diagonalization with overlap
     ethr =  7.44E-06,  avg # of iterations =  4.6

     total cpu time spent up to now is      598.6 secs

     total energy              =    -538.16065839 Ry
     estimated scf accuracy    <       0.00201973 Ry

     iteration #  6     ecut=    50.00 Ry     beta= 0.30
     Davidson diagonalization with overlap
     ethr =  3.16E-06,  avg # of iterations =  2.0

     total cpu time spent up to now is      603.5 secs

     total energy              =    -538.16087602 Ry
     estimated scf accuracy    <       0.00008222 Ry

     iteration #  7     ecut=    50.00 Ry     beta= 0.30
     Davidson diagonalization with overlap
     ethr =  1.28E-07,  avg # of iterations =  3.7

     total cpu time spent up to now is      609.6 secs

     total energy              =    -538.16092148 Ry
     estimated scf accuracy    <       0.00006870 Ry

     iteration #  8     ecut=    50.00 Ry     beta= 0.30
     Davidson diagonalization with overlap
     ethr =  1.07E-07,  avg # of iterations =  1.8

     total cpu time spent up to now is      614.2 secs

     total energy              =    -538.16092245 Ry
     estimated scf accuracy    <       0.00001238 Ry

     iteration #  9     ecut=    50.00 Ry     beta= 0.30
     Davidson diagonalization with overlap
     ethr =  1.93E-08,  avg # of iterations =  2.4

     total cpu time spent up to now is      619.4 secs

     total energy              =    -538.16092410 Ry
     estimated scf accuracy    <       0.00000100 Ry

     iteration # 10     ecut=    50.00 Ry     beta= 0.30
     Davidson diagonalization with overlap
     ethr =  1.56E-09,  avg # of iterations =  3.4

     total cpu time spent up to now is      625.2 secs

     total energy              =    -538.16092454 Ry
     estimated scf accuracy    <       0.00000004 Ry

     iteration # 11     ecut=    50.00 Ry     beta= 0.30
     Davidson diagonalization with overlap
     ethr =  6.31E-11,  avg # of iterations =  2.3

     total cpu time spent up to now is      630.3 secs

     total energy              =    -538.16092456 Ry
     estimated scf accuracy    <       0.00000004 Ry

     iteration # 12     ecut=    50.00 Ry     beta= 0.30
     Davidson diagonalization with overlap
     ethr =  5.52E-11,  avg # of iterations =  2.6

     total cpu time spent up to now is      635.9 secs

     total energy              =    -538.16092459 Ry
     estimated scf accuracy    <          8.6E-10 Ry

     iteration # 13     ecut=    50.00 Ry     beta= 0.30
     Davidson diagonalization with overlap
     ethr =  1.34E-12,  avg # of iterations =  2.2

     total cpu time spent up to now is      641.5 secs

     total energy              =    -538.16092460 Ry
     estimated scf accuracy    <          1.0E-10 Ry

     iteration # 14     ecut=    50.00 Ry     beta= 0.30
     Davidson diagonalization with overlap
     ethr =  1.61E-13,  avg # of iterations =  2.3

     total cpu time spent up to now is      646.4 secs

     End of self-consistent calculation

          k = 0.0000 0.0000 0.0000 (  3861 PWs)   bands (ev):

   -67.9202 -67.9198 -34.7042 -34.7042 -34.7012 -34.7012 -34.6736 -34.6674
   -16.8573 -16.3614 -13.4337 -13.4336 -13.2741 -13.2740  -3.3143  -3.1659
    -1.8119  -1.3165  -1.3165  -0.9560  -0.9560   0.5708   3.1745   3.1745
     3.2145   3.2145   3.4021   3.6138   3.6138   4.1549   4.5588   4.5588
    10.3830  10.7548  11.0013  15.4478  17.4177  17.4623

          k = 0.0045 0.0000 0.3594 (  3871 PWs)   bands (ev):

   -67.9201 -67.9199 -34.7039 -34.7038 -34.7018 -34.7017 -34.6726 -34.6682
   -16.7339 -16.3795 -13.5036 -13.4389 -13.3988 -13.3310  -3.0227  -2.9213
    -1.5683  -1.2978  -1.1322  -1.0466  -0.7667   0.3074   2.5232   2.6338
     3.0637   3.2767   3.3938   3.4070   3.9267   4.1673   4.5321   4.5799
    10.4988  10.7675  12.0038  15.8644  16.0434  16.4174

          k =-0.0090-0.0000-0.7188 (  3918 PWs)   bands (ev):

   -67.9200 -67.9200 -34.7031 -34.7031 -34.7028 -34.7028 -34.6704 -34.6704
   -16.5009 -16.5009 -13.5536 -13.5536 -13.4135 -13.4135  -2.6864  -2.6864
    -1.2892  -1.2892  -0.8208  -0.8208  -0.4484  -0.4484   2.0364   2.0364
     2.7817   2.7817   3.5219   3.5219   3.9367   3.9367   4.9041   4.9041
    10.7252  10.7252  13.8616  13.8616  15.4677  15.4677

          k = 0.1325 0.3007-0.1455 (  3871 PWs)   bands (ev):

   -67.9201 -67.9199 -34.7039 -34.7038 -34.7018 -34.7017 -34.6726 -34.6682
   -16.7339 -16.3795 -13.5036 -13.4389 -13.3987 -13.3310  -3.0228  -2.9213
    -1.5683  -1.2978  -1.1322  -1.0465  -0.7668   0.3074   2.5232   2.6337
     3.0637   3.2767   3.3938   3.4070   3.9267   4.1673   4.5321   4.5799
    10.4988  10.7675  12.0038  15.8645  16.0434  16.4178

          k = 0.1370 0.3007 0.2139 (  3875 PWs)   bands (ev):

   -67.9201 -67.9199 -34.7045 -34.7032 -34.7027 -34.7010 -34.6725 -34.6683
   -16.7196 -16.3914 -13.4861 -13.4662 -13.4448 -13.2822  -3.0056  -2.9644
    -1.5469  -1.2641  -1.0577  -1.0234  -0.8105   0.2951   2.6292   2.6449
     2.9995   3.1922   3.2140   3.6214   3.8012   4.2993   4.4075   4.5515
    10.4506  10.7917  12.2061  15.5981  15.8590  16.1830

          k = 0.1235 0.3007-0.8643 (  3904 PWs)   bands (ev):

   -67.9200 -67.9199 -34.7043 -34.7038 -34.7023 -34.7015 -34.6710 -34.6696
   -16.5541 -16.4390 -13.5865 -13.5721 -13.4299 -13.3618  -2.6184  -2.5829
    -1.4433  -1.2510  -1.0497  -0.8972  -0.4891  -0.1360   2.0738   2.3206
     2.6506   2.9408   3.1416   3.3754   3.8505   4.1192   4.8602   4.9212
    10.7429  10.8623  13.4950  14.6919  15.2218  15.3543

          k = 0.1280 0.3007-0.5049 (  3900 PWs)   bands (ev):

   -67.9200 -67.9199 -34.7042 -34.7032 -34.7027 -34.7017 -34.6714 -34.6693
   -16.5799 -16.4170 -13.5623 -13.5374 -13.4713 -13.3709  -2.6062  -2.5563
    -1.5744  -1.1682  -1.0313  -0.8749  -0.7270   0.0055   1.9992   2.3248
     2.6033   3.0430   3.1415   3.5433   3.9335   3.9982   4.8502   4.9501
    10.7045  10.8907  13.1421  14.9025  15.2274  15.5055

          k =-0.2651-0.6015 0.2911 (  3918 PWs)   bands (ev):

   -67.9200 -67.9200 -34.7031 -34.7031 -34.7028 -34.7028 -34.6704 -34.6704
   -16.5009 -16.5009 -13.5535 -13.5535 -13.4135 -13.4135  -2.6865  -2.6865
    -1.2892  -1.2892  -0.8208  -0.8208  -0.4484  -0.4484   2.0364   2.0364
     2.7817   2.7817   3.5219   3.5219   3.9367   3.9368   4.9041   4.9041
    10.7252  10.7252  13.8616  13.8617  15.4677  15.4677

          k =-0.2606-0.6015 0.6505 (  3904 PWs)   bands (ev):

   -67.9200 -67.9199 -34.7043 -34.7038 -34.7023 -34.7015 -34.6710 -34.6696
   -16.5541 -16.4390 -13.5864 -13.5721 -13.4299 -13.3619  -2.6184  -2.5829
    -1.4433  -1.2510  -1.0496  -0.8972  -0.4891  -0.1360   2.0738   2.3207
     2.6506   2.9408   3.1416   3.3754   3.8505   4.1192   4.8602   4.9212
    10.7429  10.8623  13.4950  14.6919  15.2218  15.3543

          k =-0.2741-0.6015-0.4278 (  3892 PWs)   bands (ev):

   -67.9200 -67.9199 -34.7049 -34.7042 -34.7022 -34.7008 -34.6712 -34.6692
   -16.5639 -16.4206 -13.6791 -13.5360 -13.4571 -13.2903  -2.7376  -2.5641
    -1.3430  -1.1886  -1.0601  -0.9025  -0.4984   0.0228   2.2128   2.4173
     2.4996   2.8260   2.8552   3.3636   3.7763   4.2385   4.8347   4.9133
    10.7216  11.0251  13.6472  14.8083  14.9811  15.3545

          k = 0.2651 0.0000-0.2911 (  3875 PWs)   bands (ev):

   -67.9201 -67.9199 -34.7045 -34.7032 -34.7027 -34.7010 -34.6725 -34.6683
   -16.7196 -16.3914 -13.4861 -13.4662 -13.4449 -13.2821  -3.0056  -2.9644
    -1.5469  -1.2641  -1.0577  -1.0234  -0.8105   0.2951   2.6292   2.6449
     2.9995   3.1922   3.2140   3.6214   3.8012   4.2993   4.4075   4.5515
    10.4506  10.7917  12.2061  15.5981  15.8590  16.1830

          k = 0.2696 0.0000 0.0684 (  3859 PWs)   bands (ev):

   -67.9201 -67.9199 -34.7038 -34.7038 -34.7016 -34.7016 -34.6727 -34.6683
   -16.7880 -16.4376 -13.4112 -13.4111 -13.2983 -13.2982  -3.3551  -3.2963
    -1.3542  -1.2507  -1.2507  -0.9905  -0.9905   0.3022   3.1434   3.1434
     3.2110   3.2111   3.5099   3.7202   3.7202   4.0179   4.4039   4.4039
    10.0582  10.5129  11.8732  14.7831  17.0211  17.1802

          k = 0.2560-0.0000-1.0099 (  3879 PWs)   bands (ev):

   -67.9200 -67.9199 -34.7042 -34.7030 -34.7025 -34.7017 -34.6714 -34.6694
   -16.6439 -16.4706 -13.5416 -13.4109 -13.3761 -13.3546  -3.0830  -3.0156
    -1.2512  -1.1894  -1.0369  -1.0118  -0.6681  -0.0665   2.5486   2.7232
     3.0353   3.0443   3.3005   3.7815   3.8645   3.9721   4.4781   4.4871
    10.4235  10.5597  12.9446  14.8299  15.5660  16.0703

          k = 0.2606-0.0000-0.6505 (  3876 PWs)   bands (ev):

   -67.9200 -67.9199 -34.7043 -34.7038 -34.7024 -34.7014 -34.6710 -34.6696
   -16.5472 -16.4460 -13.6392 -13.5004 -13.4824 -13.3262  -2.7301  -2.6073
    -1.3926  -1.0506  -0.9928  -0.9242  -0.5935  -0.0885   2.1176   2.1224
     2.7744   2.8371   2.9899   3.6329   3.7963   4.1009   4.8564   4.9180
    10.6883  10.9092  13.5959  14.5903  15.1165  15.3176

          k =-0.1325-0.9022 0.1455 (  3904 PWs)   bands (ev):

   -67.9200 -67.9199 -34.7043 -34.7038 -34.7023 -34.7015 -34.6710 -34.6696
   -16.5541 -16.4390 -13.5865 -13.5721 -13.4300 -13.3618  -2.6184  -2.5829
    -1.4433  -1.2510  -1.0497  -0.8972  -0.4891  -0.1360   2.0739   2.3206
     2.6506   2.9408   3.1416   3.3754   3.8505   4.1193   4.8602   4.9212
    10.7429  10.8623  13.4950  14.6919  15.2218  15.3543

          k =-0.1280-0.9022 0.5049 (  3879 PWs)   bands (ev):

   -67.9200 -67.9199 -34.7042 -34.7030 -34.7025 -34.7017 -34.6714 -34.6694
   -16.6439 -16.4706 -13.5415 -13.4110 -13.3761 -13.3546  -3.0830  -3.0156
    -1.2512  -1.1894  -1.0369  -1.0118  -0.6682  -0.0665   2.5486   2.7232
     3.0353   3.0443   3.3005   3.7815   3.8645   3.9721   4.4781   4.4871
    10.4236  10.5597  12.9446  14.8299  15.5660  16.0703

          k =-0.1416-0.9022-0.5733 (  3883 PWs)   bands (ev):

   -67.9200 -67.9199 -34.7042 -34.7037 -34.7023 -34.7013 -34.6711 -34.6696
   -16.6109 -16.5013 -13.5288 -13.4742 -13.3935 -13.2937  -3.0790  -3.0372
    -1.3182  -1.0874  -1.0415  -0.9228  -0.6221  -0.1439   2.7066   2.7835
     2.7919   3.0505   3.3400   3.5933   3.8139   4.1735   4.3832   4.4564
    10.3995  10.5882  13.3398  14.3604  15.6603  15.9506

          k =-0.1370-0.9022-0.2139 (  3882 PWs)   bands (ev):

   -67.9200 -67.9200 -34.7043 -34.7043 -34.7017 -34.7017 -34.6703 -34.6703
   -16.4947 -16.4947 -13.6019 -13.6019 -13.3775 -13.3774  -2.6188  -2.6188
    -1.2820  -1.2819  -1.0016  -1.0016  -0.2950  -0.2950   2.2393   2.2394
     2.7803   2.7803   3.1383   3.1383   4.0172   4.0173   4.8805   4.8805
    10.8115  10.8115  14.3184  14.3184  14.9538  14.9538

          k =-0.0000-0.6015-0.0000 (  3900 PWs)   bands (ev):

   -67.9200 -67.9199 -34.7042 -34.7032 -34.7027 -34.7017 -34.6714 -34.6693
   -16.5799 -16.4170 -13.5623 -13.5374 -13.4712 -13.3710  -2.6062  -2.5563
    -1.5744  -1.1682  -1.0313  -0.8749  -0.7270   0.0055   1.9992   2.3248
     2.6033   3.0430   3.1415   3.5433   3.9335   3.9981   4.8502   4.9501
    10.7045  10.8907  13.1422  14.9025  15.2275  15.5055

          k = 0.0045-0.6015 0.3594 (  3876 PWs)   bands (ev):

   -67.9200 -67.9199 -34.7043 -34.7038 -34.7024 -34.7014 -34.6710 -34.6696
   -16.5472 -16.4460 -13.6391 -13.5004 -13.4823 -13.3262  -2.7301  -2.6073
    -1.3926  -1.0506  -0.9928  -0.9242  -0.5935  -0.0885   2.1176   2.1223
     2.7744   2.8371   2.9899   3.6329   3.7963   4.1009   4.8564   4.9180
    10.6883  10.9092  13.5959  14.5903  15.1165  15.3175

          k =-0.0090-0.6015-0.7188 (  3882 PWs)   bands (ev):

   -67.9200 -67.9200 -34.7043 -34.7043 -34.7017 -34.7017 -34.6703 -34.6703
   -16.4947 -16.4947 -13.6019 -13.6019 -13.3775 -13.3775  -2.6188  -2.6188
    -1.2819  -1.2819  -1.0016  -1.0016  -0.2950  -0.2950   2.2393   2.2393
     2.7803   2.7803   3.1383   3.1383   4.0172   4.0172   4.8805   4.8805
    10.8115  10.8115  14.3184  14.3184  14.9538  14.9538

          k =-0.5301-0.0000 0.5821 (  3892 PWs)   bands (ev):

   -67.9200 -67.9199 -34.7049 -34.7042 -34.7022 -34.7008 -34.6712 -34.6692
   -16.5639 -16.4206 -13.6791 -13.5359 -13.4571 -13.2902  -2.7376  -2.5641
    -1.3430  -1.1886  -1.0602  -0.9025  -0.4984   0.0228   2.2128   2.4172
     2.4996   2.8260   2.8552   3.3637   3.7762   4.2385   4.8347   4.9133
    10.7216  11.0251  13.6471  14.8083  14.9810  15.3545

          k =-0.5256 0.0000 0.9415 (  3883 PWs)   bands (ev):

   -67.9200 -67.9199 -34.7042 -34.7037 -34.7023 -34.7013 -34.6711 -34.6696
   -16.6109 -16.5013 -13.5288 -13.4742 -13.3936 -13.2937  -3.0790  -3.0372
    -1.3183  -1.0874  -1.0415  -0.9228  -0.6221  -0.1439   2.7066   2.7835
     2.7919   3.0505   3.3400   3.5933   3.8138   4.1735   4.3832   4.4564
    10.3995  10.5881  13.3398  14.3604  15.6602  15.9506

          k =-0.5392-0.0000-0.1367 (  3856 PWs)   bands (ev):

   -67.9200 -67.9200 -34.7027 -34.7027 -34.7027 -34.7027 -34.6705 -34.6705
   -16.6163 -16.6163 -13.3556 -13.3556 -13.3556 -13.3556  -3.3923  -3.3923
    -1.1052  -1.1052  -1.1052  -1.1052  -0.4547  -0.4547   3.1550   3.1550
     3.1550   3.1550   3.7564   3.7564   4.0429   4.0429   4.0429   4.0429
    10.1055  10.1055  13.3134  13.3134  17.2973  17.2973

     the Fermi energy is     6.8915 ev

!    total energy              =    -538.16092461 Ry
     estimated scf accuracy    <          8.1E-12 Ry
     smearing contrib. (-TS)   =      -0.00000000 Ry
     internal energy E=F+TS    =    -538.16092461 Ry

     The total energy is F=E-TS. E is the sum of the following terms:
     one-electron contribution =    -251.47214888 Ry
     hartree contribution      =     151.06443615 Ry
     xc contribution           =     -88.21098783 Ry
     ewald contribution        =    -280.17570826 Ry
     one-center paw contrib.   =     -69.36651579 Ry

     convergence has been achieved in  14 iterations

     Forces acting on atoms (cartesian axes, Ry/au):

     atom    1 type  1   force =     0.00000000    0.00000000    0.00000000
     atom    2 type  1   force =     0.00000000    0.00000000    0.00000000
     atom    3 type  2   force =    -0.00000000    0.00001317    0.00000000
     atom    4 type  2   force =     0.00000000   -0.00001317    0.00000000
     atom    5 type  3   force =    -0.00001943    0.00004557    0.00007657
     atom    6 type  3   force =     0.00000000   -0.00010395   -0.00000000
     atom    7 type  3   force =    -0.00001943   -0.00004557    0.00007657
     atom    8 type  3   force =     0.00001943   -0.00004557   -0.00007657
     atom    9 type  3   force =     0.00000000    0.00010395    0.00000000
     atom   10 type  3   force =     0.00001943    0.00004557   -0.00007657

     Total force =     0.000235     Total SCF correction =     0.000007


     Computing stress (Cartesian axis) and pressure

          total   stress  (Ry/bohr**3)                   (kbar)     P=        0.04
   0.00000224   0.00000000   0.00000076            0.33        0.00        0.11
  -0.00000000  -0.00000082   0.00000000           -0.00       -0.12        0.00
   0.00000076   0.00000000  -0.00000052            0.11        0.00       -0.08


     Writing output data file ./out/CMgO3.save/

     init_run     :     11.00s CPU     11.13s WALL (       2 calls)
     electrons    :    515.64s CPU    524.94s WALL (       9 calls)
     update_pot   :     31.40s CPU     31.43s WALL (       7 calls)
     forces       :     28.23s CPU     28.30s WALL (       9 calls)
     stress       :     56.72s CPU     56.77s WALL (       9 calls)

     Called by init_run:
     wfcinit      :      2.82s CPU      2.87s WALL (       2 calls)
     potinit      :      2.84s CPU      2.86s WALL (       2 calls)
     hinit0       :      4.98s CPU      5.01s WALL (       2 calls)

     Called by electrons:
     c_bands      :    430.03s CPU    437.68s WALL (     100 calls)
     sum_band     :     54.01s CPU     55.34s WALL (     100 calls)
     v_of_rho     :      8.31s CPU      8.45s WALL (     107 calls)
     newd         :     12.12s CPU     12.21s WALL (     107 calls)
     PAW_pot      :     12.77s CPU     12.77s WALL (     114 calls)
     mix_rho      :      0.95s CPU      0.99s WALL (     100 calls)

     Called by c_bands:
     init_us_2    :      3.11s CPU      3.15s WALL (    2724 calls)
     cegterg      :    411.39s CPU    418.95s WALL (    1200 calls)

     Called by *egterg:
     cdiaghg      :     21.28s CPU     21.62s WALL (    4463 calls)
     h_psi        :    204.07s CPU    210.70s WALL (    4595 calls)
     s_psi        :     51.55s CPU     51.63s WALL (    4595 calls)
     g_psi        :      0.75s CPU      0.76s WALL (    3371 calls)

     Called by h_psi:
     h_psi:calbec :     49.77s CPU     50.11s WALL (    4595 calls)
     vloc_psi     :    102.21s CPU    108.43s WALL (    4595 calls)
     add_vuspsi   :     51.48s CPU     51.53s WALL (    4595 calls)

     General routines
     calbec       :     77.07s CPU     77.55s WALL (    6419 calls)
     fft          :      5.97s CPU      6.23s WALL (    1607 calls)
     ffts         :      0.15s CPU      0.16s WALL (     207 calls)
     fftw         :     98.86s CPU    104.86s WALL (  294186 calls)
     interpolate  :      0.54s CPU      0.57s WALL (     107 calls)

     Parallel routines
     fft_scatt_xy :     16.51s CPU     17.42s WALL (  296000 calls)
     fft_scatt_yz :     22.29s CPU     24.13s WALL (  296000 calls)

     PWSCF        :  10m46.76s CPU  10m56.45s WALL


   This run was terminated on:   3: 2: 3   3Jul2026            

=------------------------------------------------------------------------------=
   JOB DONE.
=------------------------------------------------------------------------------=
