
     Program PWSCF v.6.7MaX starts on  2Jul2026 at 23: 2:25 

     This program is part of the open-source Quantum ESPRESSO suite
     for quantum simulation of materials; please cite
         "P. Giannozzi et al., J. Phys.:Condens. Matter 21 395502 (2009);
         "P. Giannozzi et al., J. Phys.:Condens. Matter 29 465901 (2017);
          URL http://www.quantum-espresso.org", 
     in publications or presentations arising from this work. More details at
     http://www.quantum-espresso.org/quote

     Parallel version (MPI), running on     8 processors

     MPI processes distributed on     1 nodes
     K-points division:     npool     =       2
     R & G space division:  proc/nbgrp/npool/nimage =       4
     Waiting for input...
     Reading input from standard input
Warning: card &CELL ignored
Warning: card / ignored

     Current dimensions of program PWSCF are:
     Max number of different atomic species (ntypx) = 10
     Max number of k-points (npk) =  40000
     Max angular momentum in pseudopotentials (lmaxx) =  3
     file C.pbe-n-kjpaw_psl.1.0.0.UPF: wavefunction(s)  2S 2P renormalized
     file O.pbe-n-kjpaw_psl.0.1.UPF: wavefunction(s)  2P renormalized

     Subspace diagonalization in iterative solution of the eigenvalue problem:
     one sub-group per band group will be used
     scalapack distributed-memory algorithm (size of sub-group:  2*  2 procs)


     Parallelization info
     --------------------
     sticks:   dense  smooth     PW     G-vecs:    dense   smooth      PW
     Min         675     335    100                21068     7439    1210
     Max         676     336    101                21069     7442    1211
     Sum        2703    1341    401                84275    29761    4841



     bravais-lattice index     =            0
     lattice parameter (alat)  =      10.6572  a.u.
     unit-cell volume          =     624.6062 (a.u.)^3
     number of atoms/cell      =           10
     number of atomic types    =            3
     number of electrons       =        64.00
     number of Kohn-Sham states=           32
     kinetic-energy cutoff     =      50.0000  Ry
     charge density cutoff     =     400.0000  Ry
     scf convergence threshold =      1.0E-10
     mixing beta               =       0.3000
     number of iterations used =            8  plain     mixing
     Exchange-correlation= SLA  PW   PBX  PBC
                           (   1   4   3   4   0   0   0)

     celldm(1)=  10.657199  celldm(2)=   0.000000  celldm(3)=   0.000000
     celldm(4)=   0.000000  celldm(5)=   0.000000  celldm(6)=   0.000000

     crystal axes: (cart. coord. in units of alat)
               a(1) = (   0.911324  -0.411452  -0.014010 )  
               a(2) = (   0.911324   0.411452  -0.014010 )  
               a(3) = (   0.736178  -0.000000   0.676789 )  

     reciprocal axes: (cart. coord. in units 2 pi/alat)
               b(1) = (  0.539629 -1.215208 -0.586982 )  
               b(2) = (  0.539629  1.215208 -0.586982 )  
               b(3) = (  0.022341  0.000000  1.453265 )  


     PseudoPot. # 1 for Mg read from file:
     /data/pseudopotentials/mg_pbe_v1.4.uspp.F.UPF
     MD5 check sum: 8ffbd8f729fef71095aac5bd8316fb1f
     Pseudo is Ultrasoft, Zval = 10.0
     Generated by new atomic code, or converted to UPF format
     Using radial grid of  821 points,  7 beta functions with: 
                l(1) =   0
                l(2) =   0
                l(3) =   0
                l(4) =   1
                l(5) =   1
                l(6) =   2
                l(7) =   2
     Q(r) pseudized with  8 coefficients,  rinner =    1.200   1.200   1.200
                                                       1.200   1.200

     PseudoPot. # 2 for C  read from file:
     /data/pseudopotentials/C.pbe-n-kjpaw_psl.1.0.0.UPF
     MD5 check sum: 5f16ad9a65e90284d1d834d4ab3b0f7d
     Pseudo is Projector augmented-wave + core cor, Zval =  4.0
     Generated using &quot;atomic&quot; code by A. Dal Corso  v.6.3
     Shape of augmentation charge: PSQ
     Using radial grid of 1073 points,  4 beta functions with: 
                l(1) =   0
                l(2) =   0
                l(3) =   1
                l(4) =   1
     Q(r) pseudized with 0 coefficients 


     PseudoPot. # 3 for O  read from file:
     /data/pseudopotentials/O.pbe-n-kjpaw_psl.0.1.UPF
     MD5 check sum: 833c495a5d0f9b75bf046115549bffff
     Pseudo is Projector augmented-wave + core cor, Zval =  6.0
     Generated using &quot;atomic&quot; code by A. Dal Corso  v.6.3
     Shape of augmentation charge: BESSEL
     Using radial grid of 1095 points,  4 beta functions with: 
                l(1) =   0
                l(2) =   0
                l(3) =   1
                l(4) =   1
     Q(r) pseudized with 0 coefficients 


     atomic species   valence    mass     pseudopotential
        Mg            10.00    24.30500     Mg( 1.00)
        C              4.00    12.01100     C ( 1.00)
        O              6.00    15.99900     O ( 1.00)

     No symmetry found



   Cartesian axes

     site n.     atom                  positions (alat units)
         1           Mg  tau(   1) = (   1.2794125   0.0000000   0.3243847  )
         2           Mg  tau(   2) = (   0.0000000   0.0000000   0.0000000  )
         3           C   tau(   3) = (   1.9191187   0.0000000   0.4865770  )
         4           C   tau(   4) = (   0.6397062   0.0000000   0.1621923  )
         5           O   tau(   5) = (   1.0564299   0.2971994   0.3087647  )
         6           O   tau(   6) = (   1.0077950  -0.1829467   0.5005867  )
         7           O   tau(   7) = (   1.4245187   0.1142527   0.6471590  )
         8           O   tau(   8) = (   1.5023951  -0.2971994   0.3400047  )
         9           O   tau(   9) = (   1.5510300   0.1829467   0.1481827  )
        10           O   tau(  10) = (   1.1343063  -0.1142527   0.0016104  )

     number of k points=    36
                       cart. coord. in units 2pi/alat
        k(    1) = (   0.0000000   0.0000000   0.0000000), wk =   0.0312500
        k(    2) = (   0.0055852   0.0000000   0.3633162), wk =   0.0625000
        k(    3) = (  -0.0111704   0.0000000  -0.7266325), wk =   0.0312500
        k(    4) = (   0.1349072   0.3038021  -0.1467455), wk =   0.0625000
        k(    5) = (   0.1404924   0.3038021   0.2165708), wk =   0.0625000
        k(    6) = (   0.1237368   0.3038021  -0.8733780), wk =   0.0625000
        k(    7) = (   0.1293220   0.3038021  -0.5100617), wk =   0.0625000
        k(    8) = (  -0.2698144  -0.6076042   0.2934909), wk =   0.0312500
        k(    9) = (  -0.2642292  -0.6076042   0.6568072), wk =   0.0625000
        k(   10) = (  -0.2809848  -0.6076042  -0.4331415), wk =   0.0312500
        k(   11) = (   0.1349072  -0.3038021  -0.1467455), wk =   0.0625000
        k(   12) = (   0.1404924  -0.3038021   0.2165708), wk =   0.0625000
        k(   13) = (   0.1237368  -0.3038021  -0.8733780), wk =   0.0625000
        k(   14) = (   0.1293220  -0.3038021  -0.5100617), wk =   0.0625000
        k(   15) = (   0.2698144   0.0000000  -0.2934909), wk =   0.0625000
        k(   16) = (   0.2753996   0.0000000   0.0698253), wk =   0.0625000
        k(   17) = (   0.2586440   0.0000000  -1.0201234), wk =   0.0625000
        k(   18) = (   0.2642292   0.0000000  -0.6568072), wk =   0.0625000
        k(   19) = (  -0.1349072  -0.9114063   0.1467455), wk =   0.0625000
        k(   20) = (  -0.1293220  -0.9114063   0.5100617), wk =   0.0625000
        k(   21) = (  -0.1460776  -0.9114063  -0.5798870), wk =   0.0625000
        k(   22) = (  -0.1404924  -0.9114063  -0.2165708), wk =   0.0625000
        k(   23) = (   0.0000000  -0.6076042   0.0000000), wk =   0.0625000
        k(   24) = (   0.0055852  -0.6076042   0.3633162), wk =   0.0625000
        k(   25) = (  -0.0111704  -0.6076042  -0.7266325), wk =   0.0625000
        k(   26) = (  -0.0055852  -0.6076042  -0.3633162), wk =   0.0625000
        k(   27) = (  -0.2698144   0.6076042   0.2934909), wk =   0.0312500
        k(   28) = (  -0.2642292   0.6076042   0.6568072), wk =   0.0625000
        k(   29) = (  -0.2809848   0.6076042  -0.4331415), wk =   0.0312500
        k(   30) = (  -0.1349072   0.9114063   0.1467455), wk =   0.0625000
        k(   31) = (  -0.1293220   0.9114063   0.5100617), wk =   0.0625000
        k(   32) = (  -0.1460776   0.9114063  -0.5798870), wk =   0.0625000
        k(   33) = (  -0.1404924   0.9114063  -0.2165708), wk =   0.0625000
        k(   34) = (  -0.5396289   0.0000000   0.5869819), wk =   0.0312500
        k(   35) = (  -0.5340437   0.0000000   0.9502981), wk =   0.0625000
        k(   36) = (  -0.5507993   0.0000000  -0.1396506), wk =   0.0312500

     Dense  grid:    84275 G-vectors     FFT dimensions: (  72,  72,  72)

     Smooth grid:    29761 G-vectors     FFT dimensions: (  48,  48,  48)

     Estimated max dynamical RAM per process >      68.58 MB

     Estimated total dynamical RAM >     548.62 MB

     Check: negative core charge=   -0.000004

     Initial potential from superposition of free atoms

     starting charge   63.39945, renormalised to   64.00000
     Starting wfcs are   42 randomized atomic wfcs
     Checking if some PAW data can be deallocated... 

     total cpu time spent up to now is        5.8 secs

     Self-consistent Calculation

     iteration #  1     ecut=    50.00 Ry     beta= 0.30
     Davidson diagonalization with overlap
     ethr =  1.00E-02,  avg # of iterations =  2.0

     total cpu time spent up to now is       11.9 secs

     total energy              =    -537.96882252 Ry
     estimated scf accuracy    <       1.40639519 Ry

     iteration #  2     ecut=    50.00 Ry     beta= 0.30
     Davidson diagonalization with overlap
     ethr =  2.20E-03,  avg # of iterations =  2.2

     total cpu time spent up to now is       18.0 secs

     total energy              =    -538.13080010 Ry
     estimated scf accuracy    <       0.14089814 Ry

     iteration #  3     ecut=    50.00 Ry     beta= 0.30
     Davidson diagonalization with overlap
     ethr =  2.20E-04,  avg # of iterations =  4.0

     total cpu time spent up to now is       24.5 secs

     total energy              =    -538.14847023 Ry
     estimated scf accuracy    <       0.04308005 Ry

     iteration #  4     ecut=    50.00 Ry     beta= 0.30
     Davidson diagonalization with overlap
     ethr =  6.73E-05,  avg # of iterations =  4.1

     total cpu time spent up to now is       31.6 secs

     total energy              =    -538.15829781 Ry
     estimated scf accuracy    <       0.03810532 Ry

     iteration #  5     ecut=    50.00 Ry     beta= 0.30
     Davidson diagonalization with overlap
     ethr =  5.95E-05,  avg # of iterations =  1.6

     total cpu time spent up to now is       36.5 secs

     total energy              =    -538.14917337 Ry
     estimated scf accuracy    <       0.01478027 Ry

     iteration #  6     ecut=    50.00 Ry     beta= 0.30
     Davidson diagonalization with overlap
     ethr =  2.31E-05,  avg # of iterations =  3.8

     total cpu time spent up to now is       43.7 secs

     total energy              =    -538.15621971 Ry
     estimated scf accuracy    <       0.00965158 Ry

     iteration #  7     ecut=    50.00 Ry     beta= 0.30
     Davidson diagonalization with overlap
     ethr =  1.51E-05,  avg # of iterations =  2.2

     total cpu time spent up to now is       49.1 secs

     total energy              =    -538.15567846 Ry
     estimated scf accuracy    <       0.00185827 Ry

     iteration #  8     ecut=    50.00 Ry     beta= 0.30
     Davidson diagonalization with overlap
     ethr =  2.90E-06,  avg # of iterations =  4.1

     total cpu time spent up to now is       56.4 secs

     total energy              =    -538.15653476 Ry
     estimated scf accuracy    <       0.00064491 Ry

     iteration #  9     ecut=    50.00 Ry     beta= 0.30
     Davidson diagonalization with overlap
     ethr =  1.01E-06,  avg # of iterations =  2.1

     total cpu time spent up to now is       61.7 secs

     total energy              =    -538.15654959 Ry
     estimated scf accuracy    <       0.00009275 Ry

     iteration # 10     ecut=    50.00 Ry     beta= 0.30
     Davidson diagonalization with overlap
     ethr =  1.45E-07,  avg # of iterations =  3.9

     total cpu time spent up to now is       68.4 secs

     total energy              =    -538.15657949 Ry
     estimated scf accuracy    <       0.00000097 Ry

     iteration # 11     ecut=    50.00 Ry     beta= 0.30
     Davidson diagonalization with overlap
     ethr =  1.52E-09,  avg # of iterations =  3.7

     total cpu time spent up to now is       75.0 secs

     total energy              =    -538.15657976 Ry
     estimated scf accuracy    <       0.00000056 Ry

     iteration # 12     ecut=    50.00 Ry     beta= 0.30
     Davidson diagonalization with overlap
     ethr =  8.76E-10,  avg # of iterations =  1.9

     total cpu time spent up to now is       80.0 secs

     total energy              =    -538.15657969 Ry
     estimated scf accuracy    <       0.00000032 Ry

     iteration # 13     ecut=    50.00 Ry     beta= 0.30
     Davidson diagonalization with overlap
     ethr =  4.92E-10,  avg # of iterations =  3.0

     total cpu time spent up to now is       85.4 secs

     total energy              =    -538.15657972 Ry
     estimated scf accuracy    <       0.00000004 Ry

     iteration # 14     ecut=    50.00 Ry     beta= 0.30
     Davidson diagonalization with overlap
     ethr =  6.02E-11,  avg # of iterations =  3.9

     total cpu time spent up to now is       92.0 secs

     End of self-consistent calculation

          k = 0.0000 0.0000 0.0000 (  3657 PWs)   bands (ev):

   -67.2492 -67.2487 -34.0381 -34.0381 -34.0342 -34.0342 -34.0082 -34.0005
   -16.5945 -16.0245 -13.0897 -13.0897 -12.9043 -12.9043  -2.9476  -2.8053
    -1.5614  -0.9978  -0.9978  -0.6067  -0.6067   1.0013   3.5875   3.5875
     3.6011   3.6011   3.7465   4.0191   4.0192   4.5602   5.0353   5.0353

          k = 0.0056 0.0000 0.3633 (  3734 PWs)   bands (ev):

   -67.2491 -67.2488 -34.0378 -34.0377 -34.0350 -34.0349 -34.0071 -34.0016
   -16.4575 -16.0497 -13.1631 -13.0935 -13.0410 -12.9686  -2.6501  -2.5545
    -1.2963  -0.9799  -0.7968  -0.7050  -0.3973   0.7172   2.9089   3.0215
     3.4396   3.6874   3.7954   3.8204   4.3168   4.6216   4.9912   4.9961

          k =-0.0112 0.0000-0.7266 (  3720 PWs)   bands (ev):

   -67.2489 -67.2489 -34.0366 -34.0366 -34.0363 -34.0363 -34.0043 -34.0043
   -16.1939 -16.1939 -13.2125 -13.2125 -13.0621 -13.0621  -2.3178  -2.3178
    -0.9576  -0.9576  -0.4635  -0.4635  -0.0829  -0.0829   2.4021   2.4021
     3.1522   3.1522   3.9517   3.9517   4.3738   4.3738   5.3317   5.3317

          k = 0.1349 0.3038-0.1467 (  3734 PWs)   bands (ev):

   -67.2491 -67.2488 -34.0378 -34.0377 -34.0350 -34.0349 -34.0071 -34.0016
   -16.4575 -16.0497 -13.1631 -13.0935 -13.0410 -12.9686  -2.6501  -2.5545
    -1.2963  -0.9799  -0.7968  -0.7050  -0.3974   0.7172   2.9089   3.0215
     3.4396   3.6874   3.7954   3.8204   4.3168   4.6216   4.9911   4.9961

          k = 0.1405 0.3038 0.2166 (  3721 PWs)   bands (ev):

   -67.2491 -67.2488 -34.0386 -34.0368 -34.0362 -34.0340 -34.0068 -34.0016
   -16.4408 -16.0632 -13.1475 -13.1190 -13.0962 -12.9125  -2.6306  -2.6042
    -1.2688  -0.9432  -0.7160  -0.6753  -0.4479   0.7102   3.0122   3.0392
     3.3588   3.6024   3.6212   4.0371   4.1969   4.7638   4.8360   4.9637

          k = 0.1237 0.3038-0.8734 (  3730 PWs)   bands (ev):

   -67.2490 -67.2489 -34.0383 -34.0376 -34.0357 -34.0346 -34.0050 -34.0032
   -16.2545 -16.1220 -13.2545 -13.2398 -13.0767 -12.9992  -2.2343  -2.1924
    -1.1390  -0.9254  -0.7197  -0.5327  -0.1094   0.2416   2.4354   2.6985
     3.0235   3.3364   3.5349   3.7792   4.2858   4.5734   5.2850   5.3443

          k = 0.1293 0.3038-0.5101 (  3728 PWs)   bands (ev):

   -67.2490 -67.2489 -34.0381 -34.0369 -34.0362 -34.0348 -34.0055 -34.0029
   -16.2844 -16.0969 -13.2246 -13.2025 -13.1210 -13.0110  -2.2171  -2.1586
    -1.2889  -0.8490  -0.6787  -0.5520  -0.3466   0.4022   2.3581   2.7055
     2.9648   3.4448   3.5335   3.9714   4.3732   4.4442   5.2749   5.3782

          k =-0.2698-0.6076 0.2935 (  3720 PWs)   bands (ev):

   -67.2489 -67.2489 -34.0366 -34.0366 -34.0363 -34.0363 -34.0043 -34.0043
   -16.1939 -16.1939 -13.2125 -13.2125 -13.0621 -13.0621  -2.3178  -2.3178
    -0.9576  -0.9576  -0.4635  -0.4635  -0.0829  -0.0829   2.4021   2.4021
     3.1522   3.1522   3.9517   3.9517   4.3738   4.3738   5.3317   5.3317

          k =-0.2642-0.6076 0.6568 (  3730 PWs)   bands (ev):

   -67.2490 -67.2489 -34.0383 -34.0376 -34.0357 -34.0346 -34.0050 -34.0032
   -16.2545 -16.1220 -13.2546 -13.2398 -13.0767 -12.9992  -2.2343  -2.1924
    -1.1390  -0.9254  -0.7197  -0.5327  -0.1094   0.2416   2.4354   2.6985
     3.0235   3.3364   3.5349   3.7792   4.2858   4.5734   5.2850   5.3443

          k =-0.2810-0.6076-0.4331 (  3744 PWs)   bands (ev):

   -67.2490 -67.2489 -34.0390 -34.0382 -34.0356 -34.0337 -34.0053 -34.0027
   -16.2647 -16.1007 -13.3593 -13.2021 -13.1042 -12.9207  -2.3765  -2.1650
    -1.0017  -0.8883  -0.7252  -0.5272  -0.1226   0.4183   2.5959   2.7928
     2.8841   3.2060   3.2135   3.7515   4.2077   4.7022   5.2501   5.3344

          k = 0.1349-0.3038-0.1467 (  3734 PWs)   bands (ev):

   -67.2491 -67.2488 -34.0378 -34.0377 -34.0350 -34.0349 -34.0071 -34.0016
   -16.4575 -16.0497 -13.1631 -13.0935 -13.0410 -12.9686  -2.6501  -2.5545
    -1.2963  -0.9799  -0.7968  -0.7050  -0.3974   0.7172   2.9089   3.0215
     3.4396   3.6874   3.7954   3.8204   4.3168   4.6216   4.9911   4.9961

          k = 0.1405-0.3038 0.2166 (  3721 PWs)   bands (ev):

   -67.2491 -67.2488 -34.0386 -34.0368 -34.0362 -34.0340 -34.0068 -34.0016
   -16.4408 -16.0632 -13.1475 -13.1190 -13.0962 -12.9125  -2.6306  -2.6042
    -1.2688  -0.9432  -0.7160  -0.6753  -0.4479   0.7102   3.0122   3.0392
     3.3588   3.6024   3.6212   4.0371   4.1969   4.7638   4.8360   4.9637

          k = 0.1237-0.3038-0.8734 (  3730 PWs)   bands (ev):

   -67.2490 -67.2489 -34.0383 -34.0376 -34.0357 -34.0346 -34.0050 -34.0032
   -16.2545 -16.1220 -13.2545 -13.2398 -13.0767 -12.9992  -2.2343  -2.1924
    -1.1390  -0.9254  -0.7197  -0.5327  -0.1094   0.2416   2.4354   2.6985
     3.0235   3.3364   3.5349   3.7792   4.2858   4.5734   5.2850   5.3443

          k = 0.1293-0.3038-0.5101 (  3728 PWs)   bands (ev):

   -67.2490 -67.2489 -34.0381 -34.0369 -34.0362 -34.0348 -34.0055 -34.0029
   -16.2844 -16.0969 -13.2246 -13.2025 -13.1210 -13.0110  -2.2171  -2.1586
    -1.2889  -0.8490  -0.6787  -0.5520  -0.3466   0.4022   2.3581   2.7055
     2.9648   3.4448   3.5335   3.9714   4.3732   4.4442   5.2749   5.3782

          k = 0.2698 0.0000-0.2935 (  3721 PWs)   bands (ev):

   -67.2491 -67.2488 -34.0386 -34.0368 -34.0362 -34.0340 -34.0068 -34.0016
   -16.4408 -16.0632 -13.1475 -13.1190 -13.0962 -12.9125  -2.6306  -2.6042
    -1.2688  -0.9432  -0.7160  -0.6753  -0.4479   0.7102   3.0122   3.0392
     3.3588   3.6024   3.6212   4.0371   4.1969   4.7638   4.8361   4.9637

          k = 0.2754 0.0000 0.0698 (  3696 PWs)   bands (ev):

   -67.2491 -67.2488 -34.0376 -34.0376 -34.0348 -34.0348 -34.0072 -34.0016
   -16.5154 -16.1127 -13.0637 -13.0637 -12.9327 -12.9327  -3.0009  -2.9602
    -1.0480  -0.9247  -0.9247  -0.6409  -0.6409   0.7287   3.5436   3.5436
     3.6038   3.6038   3.8618   4.1309   4.1309   4.4052   4.8663   4.8663

          k = 0.2586 0.0000-1.0201 (  3726 PWs)   bands (ev):

   -67.2490 -67.2489 -34.0381 -34.0366 -34.0359 -34.0348 -34.0056 -34.0030
   -16.3541 -16.1543 -13.2071 -13.0606 -13.0172 -12.9955  -2.7278  -2.6644
    -0.9218  -0.8519  -0.6925  -0.6709  -0.2973   0.3232   2.9270   3.1136
     3.4271   3.4388   3.6903   4.2064   4.2935   4.3720   4.8824   4.9299

          k = 0.2642 0.0000-0.6568 (  3736 PWs)   bands (ev):

   -67.2490 -67.2489 -34.0382 -34.0377 -34.0358 -34.0345 -34.0051 -34.0032
   -16.2462 -16.1304 -13.3122 -13.1615 -13.1320 -12.9619  -2.3692  -2.2196
    -1.0679  -0.6966  -0.6503  -0.5869  -0.2301   0.3060   2.4803   2.4966
     3.1292   3.2250   3.3972   4.0448   4.2329   4.5513   5.2753   5.3433

          k =-0.1349-0.9114 0.1467 (  3730 PWs)   bands (ev):

   -67.2490 -67.2489 -34.0383 -34.0376 -34.0357 -34.0346 -34.0050 -34.0032
   -16.2545 -16.1220 -13.2545 -13.2398 -13.0767 -12.9992  -2.2343  -2.1924
    -1.1390  -0.9254  -0.7197  -0.5328  -0.1094   0.2416   2.4354   2.6985
     3.0235   3.3364   3.5349   3.7792   4.2858   4.5734   5.2850   5.3443

          k =-0.1293-0.9114 0.5101 (  3726 PWs)   bands (ev):

   -67.2490 -67.2489 -34.0381 -34.0366 -34.0359 -34.0348 -34.0056 -34.0030
   -16.3541 -16.1543 -13.2071 -13.0606 -13.0172 -12.9955  -2.7278  -2.6644
    -0.9218  -0.8519  -0.6925  -0.6709  -0.2973   0.3232   2.9270   3.1136
     3.4271   3.4388   3.6903   4.2064   4.2935   4.3721   4.8824   4.9299

          k =-0.1461-0.9114-0.5799 (  3739 PWs)   bands (ev):

   -67.2490 -67.2489 -34.0381 -34.0375 -34.0356 -34.0344 -34.0051 -34.0033
   -16.3155 -16.1898 -13.1924 -13.1334 -13.0373 -12.9263  -2.7334  -2.6775
    -0.9959  -0.7387  -0.6992  -0.5621  -0.2586   0.2490   3.0853   3.1688
     3.1806   3.4488   3.7350   3.9875   4.2296   4.6267   4.7877   4.8645

          k =-0.1405-0.9114-0.2166 (  3746 PWs)   bands (ev):

   -67.2489 -67.2489 -34.0383 -34.0383 -34.0349 -34.0349 -34.0041 -34.0041
   -16.1858 -16.1858 -13.2738 -13.2738 -13.0169 -13.0169  -2.2367  -2.2367
    -0.9490  -0.9490  -0.6613  -0.6613   0.0850   0.0850   2.6083   2.6083
     3.1770   3.1770   3.5152   3.5152   4.4636   4.4636   5.3015   5.3015

          k = 0.0000-0.6076 0.0000 (  3728 PWs)   bands (ev):

   -67.2490 -67.2489 -34.0381 -34.0369 -34.0362 -34.0348 -34.0055 -34.0029
   -16.2844 -16.0969 -13.2246 -13.2025 -13.1210 -13.0110  -2.2171  -2.1586
    -1.2889  -0.8490  -0.6787  -0.5520  -0.3466   0.4022   2.3581   2.7056
     2.9648   3.4448   3.5334   3.9714   4.3732   4.4442   5.2749   5.3782

          k = 0.0056-0.6076 0.3633 (  3736 PWs)   bands (ev):

   -67.2490 -67.2489 -34.0382 -34.0377 -34.0358 -34.0345 -34.0051 -34.0032
   -16.2462 -16.1304 -13.3122 -13.1615 -13.1320 -12.9619  -2.3692  -2.2196
    -1.0679  -0.6966  -0.6503  -0.5869  -0.2301   0.3060   2.4803   2.4966
     3.1292   3.2250   3.3971   4.0448   4.2329   4.5513   5.2753   5.3433

          k =-0.0112-0.6076-0.7266 (  3746 PWs)   bands (ev):

   -67.2489 -67.2489 -34.0383 -34.0383 -34.0349 -34.0349 -34.0041 -34.0041
   -16.1858 -16.1858 -13.2738 -13.2738 -13.0169 -13.0169  -2.2367  -2.2367
    -0.9490  -0.9490  -0.6613  -0.6613   0.0850   0.0850   2.6083   2.6083
     3.1770   3.1770   3.5152   3.5152   4.4636   4.4636   5.3015   5.3015

          k =-0.0056-0.6076-0.3633 (  3736 PWs)   bands (ev):

   -67.2490 -67.2489 -34.0382 -34.0377 -34.0358 -34.0345 -34.0051 -34.0032
   -16.2462 -16.1304 -13.3122 -13.1615 -13.1320 -12.9619  -2.3692  -2.2196
    -1.0679  -0.6966  -0.6503  -0.5869  -0.2301   0.3060   2.4803   2.4966
     3.1292   3.2250   3.3971   4.0448   4.2329   4.5513   5.2753   5.3433

          k =-0.2698 0.6076 0.2935 (  3720 PWs)   bands (ev):

   -67.2489 -67.2489 -34.0366 -34.0366 -34.0363 -34.0363 -34.0043 -34.0043
   -16.1939 -16.1939 -13.2125 -13.2125 -13.0621 -13.0621  -2.3178  -2.3178
    -0.9576  -0.9576  -0.4635  -0.4635  -0.0829  -0.0829   2.4021   2.4021
     3.1522   3.1522   3.9517   3.9517   4.3738   4.3738   5.3317   5.3317

          k =-0.2642 0.6076 0.6568 (  3730 PWs)   bands (ev):

   -67.2490 -67.2489 -34.0383 -34.0376 -34.0357 -34.0346 -34.0050 -34.0032
   -16.2545 -16.1220 -13.2545 -13.2398 -13.0767 -12.9992  -2.2343  -2.1924
    -1.1390  -0.9254  -0.7197  -0.5327  -0.1094   0.2416   2.4354   2.6985
     3.0235   3.3364   3.5349   3.7792   4.2858   4.5734   5.2850   5.3443

          k =-0.2810 0.6076-0.4331 (  3744 PWs)   bands (ev):

   -67.2490 -67.2489 -34.0390 -34.0382 -34.0356 -34.0337 -34.0053 -34.0027
   -16.2647 -16.1007 -13.3593 -13.2021 -13.1042 -12.9207  -2.3765  -2.1650
    -1.0017  -0.8883  -0.7252  -0.5272  -0.1226   0.4183   2.5959   2.7928
     2.8841   3.2059   3.2135   3.7515   4.2077   4.7022   5.2501   5.3344

          k =-0.1349 0.9114 0.1467 (  3730 PWs)   bands (ev):

   -67.2490 -67.2489 -34.0383 -34.0376 -34.0357 -34.0346 -34.0050 -34.0032
   -16.2545 -16.1220 -13.2545 -13.2398 -13.0767 -12.9992  -2.2343  -2.1924
    -1.1390  -0.9254  -0.7197  -0.5328  -0.1094   0.2416   2.4354   2.6985
     3.0235   3.3364   3.5349   3.7792   4.2858   4.5734   5.2850   5.3443

          k =-0.1293 0.9114 0.5101 (  3726 PWs)   bands (ev):

   -67.2490 -67.2489 -34.0381 -34.0366 -34.0359 -34.0348 -34.0056 -34.0030
   -16.3541 -16.1543 -13.2071 -13.0606 -13.0172 -12.9955  -2.7278  -2.6644
    -0.9218  -0.8519  -0.6925  -0.6709  -0.2973   0.3232   2.9270   3.1136
     3.4271   3.4388   3.6903   4.2064   4.2935   4.3721   4.8824   4.9299

          k =-0.1461 0.9114-0.5799 (  3739 PWs)   bands (ev):

   -67.2490 -67.2489 -34.0381 -34.0375 -34.0356 -34.0344 -34.0051 -34.0033
   -16.3155 -16.1898 -13.1924 -13.1334 -13.0373 -12.9263  -2.7334  -2.6775
    -0.9959  -0.7387  -0.6992  -0.5621  -0.2586   0.2490   3.0853   3.1688
     3.1806   3.4488   3.7350   3.9875   4.2296   4.6267   4.7877   4.8645

          k =-0.1405 0.9114-0.2166 (  3746 PWs)   bands (ev):

   -67.2489 -67.2489 -34.0383 -34.0383 -34.0349 -34.0349 -34.0041 -34.0041
   -16.1858 -16.1858 -13.2738 -13.2738 -13.0169 -13.0169  -2.2367  -2.2367
    -0.9490  -0.9490  -0.6613  -0.6613   0.0850   0.0850   2.6083   2.6083
     3.1770   3.1770   3.5152   3.5152   4.4636   4.4636   5.3015   5.3015

          k =-0.5396 0.0000 0.5870 (  3744 PWs)   bands (ev):

   -67.2490 -67.2489 -34.0390 -34.0382 -34.0356 -34.0337 -34.0053 -34.0027
   -16.2647 -16.1007 -13.3593 -13.2021 -13.1041 -12.9207  -2.3765  -2.1650
    -1.0017  -0.8883  -0.7252  -0.5272  -0.1226   0.4183   2.5959   2.7927
     2.8841   3.2059   3.2135   3.7515   4.2077   4.7022   5.2501   5.3344

          k =-0.5340 0.0000 0.9503 (  3739 PWs)   bands (ev):

   -67.2490 -67.2489 -34.0381 -34.0375 -34.0356 -34.0344 -34.0051 -34.0033
   -16.3155 -16.1898 -13.1924 -13.1334 -13.0373 -12.9263  -2.7334  -2.6775
    -0.9959  -0.7387  -0.6992  -0.5621  -0.2586   0.2491   3.0853   3.1688
     3.1806   3.4488   3.7350   3.9875   4.2296   4.6267   4.7877   4.8645

          k =-0.5508 0.0000-0.1397 (  3712 PWs)   bands (ev):

   -67.2490 -67.2490 -34.0362 -34.0362 -34.0362 -34.0362 -34.0044 -34.0044
   -16.3185 -16.3185 -12.9994 -12.9994 -12.9994 -12.9994  -3.0583  -3.0583
    -0.7637  -0.7637  -0.7637  -0.7637  -0.0717  -0.0717   3.5482   3.5482
     3.5482   3.5482   4.1231   4.1231   4.4751   4.4751   4.4751   4.4751

     highest occupied level (ev):     5.3782

!    total energy              =    -538.15657974 Ry
     estimated scf accuracy    <          6.0E-11 Ry

     The total energy is the sum of the following terms:
     one-electron contribution =    -243.94817793 Ry
     hartree contribution      =     148.44810036 Ry
     xc contribution           =     -88.37073700 Ry
     ewald contribution        =    -284.92429077 Ry
     one-center paw contrib.   =     -69.36147440 Ry

     convergence has been achieved in  14 iterations

     Forces acting on atoms (cartesian axes, Ry/au):

     atom    1 type  1   force =    -0.00000019    0.00000010    0.00000041
     atom    2 type  1   force =     0.00000008   -0.00000032   -0.00000026
     atom    3 type  2   force =     0.00000003    0.00000088   -0.00000009
     atom    4 type  2   force =     0.00000005   -0.00000061   -0.00000003
     atom    5 type  3   force =     0.00166373   -0.00390891   -0.00656348
     atom    6 type  3   force =     0.00000015    0.00781737   -0.00000012
     atom    7 type  3   force =     0.00166390    0.00390902   -0.00656317
     atom    8 type  3   force =    -0.00166369    0.00390894    0.00656330
     atom    9 type  3   force =    -0.00000014   -0.00781745   -0.00000002
     atom   10 type  3   force =    -0.00166393   -0.00390900    0.00656344

     Total force =     0.019150     Total SCF correction =     0.000002

     Writing output data file ./out/CMgO3.save/

     init_run     :      4.96s CPU      5.10s WALL (       1 calls)
     electrons    :     84.68s CPU     86.26s WALL (       1 calls)
     forces       :      2.90s CPU      2.91s WALL (       1 calls)

     Called by init_run:
     wfcinit      :      1.90s CPU      1.94s WALL (       1 calls)
     potinit      :      1.08s CPU      1.10s WALL (       1 calls)
     hinit0       :      1.84s CPU      1.90s WALL (       1 calls)

     Called by electrons:
     c_bands      :     70.89s CPU     72.19s WALL (      14 calls)
     sum_band     :      9.19s CPU      9.39s WALL (      14 calls)
     v_of_rho     :      1.31s CPU      1.35s WALL (      15 calls)
     newd         :      1.66s CPU      1.68s WALL (      15 calls)
     PAW_pot      :      1.58s CPU      1.59s WALL (      15 calls)
     mix_rho      :      0.18s CPU      0.19s WALL (      14 calls)

     Called by c_bands:
     init_us_2    :      0.62s CPU      0.63s WALL (     540 calls)
     cegterg      :     67.98s CPU     69.26s WALL (     252 calls)

     Called by *egterg:
     cdiaghg      :      3.51s CPU      3.57s WALL (    1029 calls)
     h_psi        :     36.66s CPU     37.81s WALL (    1047 calls)
     s_psi        :      8.57s CPU      8.58s WALL (    1047 calls)
     g_psi        :      0.15s CPU      0.15s WALL (     777 calls)

     Called by h_psi:
     h_psi:calbec :      8.69s CPU      8.76s WALL (    1047 calls)
     vloc_psi     :     19.19s CPU     20.26s WALL (    1047 calls)
     add_vuspsi   :      8.64s CPU      8.66s WALL (    1047 calls)

     General routines
     calbec       :     12.72s CPU     12.81s WALL (    1371 calls)
     fft          :      0.99s CPU      1.03s WALL (     204 calls)
     ffts         :      0.03s CPU      0.03s WALL (      29 calls)
     fftw         :     18.74s CPU     19.77s WALL (   51706 calls)
     interpolate  :      0.09s CPU      0.10s WALL (      15 calls)

     Parallel routines
     fft_scatt_xy :      3.14s CPU      3.30s WALL (   51939 calls)
     fft_scatt_yz :      4.88s CPU      5.23s WALL (   51939 calls)

     PWSCF        :   1m33.09s CPU   1m35.12s WALL


   This run was terminated on:  23: 4: 0   2Jul2026            

=------------------------------------------------------------------------------=
   JOB DONE.
=------------------------------------------------------------------------------=
