
     Program DYNMAT v.6.7MaX starts on  5Jul2026 at 13: 5:43 

     This program is part of the open-source Quantum ESPRESSO suite
     for quantum simulation of materials; please cite
         "P. Giannozzi et al., J. Phys.:Condens. Matter 21 395502 (2009);
         "P. Giannozzi et al., J. Phys.:Condens. Matter 29 465901 (2017);
          URL http://www.quantum-espresso.org", 
     in publications or presentations arising from this work. More details at
     http://www.quantum-espresso.org/quote

     Parallel version (MPI), running on     1 processors

     MPI processes distributed on     1 nodes

     Reading Dynamical Matrix from file O4SSr.dyn
     ...Force constants read
     ...epsilon and Z* read
     A direction for q was not specified:TO-LO splitting will be absent
     Max |d(i,j)-d*(j,i)| =  0.013061
     Max |d(i,j)-d*(j,i)|/|d(i,j)|:   3.0056%

     Polarizability (A^3 units)
     multiply by 0.626333 for Clausius-Mossotti correction
        43.422503   -0.000089   -0.000027
        -0.000089   43.327224   -0.000001
        -0.000027   -0.000001   44.307416

     IR activities are in (D/A)^2/amu units

# mode   [cm-1]    [THz]      IR
    1    -61.11   -1.8321    3.2681
    2    -56.48   -1.6934    0.0000
    3    -35.32   -1.0588    0.0000
    4    -34.04   -1.0206    0.0000
    5    -31.33   -0.9394    0.0000
    6    -26.81   -0.8037    0.4765
    7     -4.73   -0.1418    0.0014
    8      6.92    0.2076    0.0765
    9     37.71    1.1305    1.0721
   10     58.21    1.7451    0.0000
   11     79.22    2.3750    0.0000
   12     81.42    2.4409    0.0000
   13     87.50    2.6233    2.4906
   14     99.84    2.9933    0.0000
   15    108.93    3.2655    0.0000
   16    110.03    3.2985    0.0000
   17    113.69    3.4084    1.4068
   18    122.01    3.6577    0.0000
   19    124.70    3.7385    0.0000
   20    127.49    3.8220    0.0000
   21    132.66    3.9770    1.7342
   22    143.11    4.2903   10.6866
   23    150.91    4.5241    0.0000
   24    155.17    4.6520    0.0000
   25    161.05    4.8280    0.0000
   26    165.26    4.9544    0.0216
   27    168.23    5.0433   11.8990
   28    182.24    5.4635    0.0000
   29    186.01    5.5763    0.0000
   30    187.27    5.6141    0.0000
   31    191.30    5.7351   14.2163
   32    193.21    5.7922    0.2876
   33    194.12    5.8197    2.1406
   34    203.89    6.1124    0.0000
   35    222.39    6.6669    0.0000
   36    235.01    7.0455    0.0000
   37    424.48   12.7257    0.0000
   38    425.15   12.7456    0.0000
   39    434.05   13.0125    0.0000
   40    436.13   13.0749    0.0310
   41    440.26   13.1987    0.0000
   42    445.07   13.3430    0.0056
   43    456.93   13.6983    0.0152
   44    461.64   13.8395    0.0000
   45    575.31   17.2474    0.0000
   46    576.98   17.2974    8.9031
   47    579.57   17.3751    9.4107
   48    585.01   17.5382    0.0517
   49    590.36   17.6984    0.0000
   50    591.67   17.7379    0.0000
   51    601.44   18.0308    0.0000
   52    604.87   18.1337    0.0000
   53    612.12   18.3509    0.0000
   54    612.79   18.3710   12.0117
   55    629.37   18.8680    0.0365
   56    633.55   18.9932    0.0000
   57    998.51   29.9345    0.4063
   58    999.30   29.9582    0.0000
   59   1002.85   30.0647    1.8559
   60   1009.08   30.2514    0.0000
   61   1089.67   32.6676   78.9862
   62   1089.84   32.6725    0.0000
   63   1114.53   33.4128    0.0000
   64   1117.98   33.5162    0.0000
   65   1136.11   34.0596   72.2537
   66   1138.40   34.1285    0.0000
   67   1159.94   34.7742    0.1644
   68   1184.17   35.5005    0.0000
   69   1193.80   35.7892    0.0000
   70   1213.32   36.3745   74.8860
   71   1217.87   36.5107    0.0000
   72   1271.78   38.1271    2.0853

     DYNMAT       :      0.04s CPU      0.04s WALL


   This run was terminated on:  13: 5:43   5Jul2026            

=------------------------------------------------------------------------------=
   JOB DONE.
=------------------------------------------------------------------------------=
  0.000001   0.000000   )
 (  0.229911   0.000000    -0.000000   0.000000     0.000001   0.000000   )
 (  0.229911   0.000000     0.000002   0.000000     0.000001   0.000000   )
 ( -0.229911   0.000000     0.000000   0.000000     0.000001   0.000000   )
 ( -0.082500   0.000000     0.000000   0.000000     0.000002   0.000000   )
 (  0.082500   0.000000     0.000001   0.000000    -0.000000   0.000000   )
 (  0.082500   0.000000     0.000000   0.000000    -0.000000   0.000000   )
 ( -0.082500   0.000000     0.000001   0.000000     0.000002   0.000000   )
 (  0.188753   0.000000    -0.144661   0.000000    -0.124564   0.000000   )
 ( -0.188753   0.000000    -0.144661   0.000000    -0.124566   0.000000   )
 ( -0.188753   0.000000    -0.144662   0.000000     0.124565   0.000000   )
 (  0.188752   0.000000    -0.144660   0.000000     0.124567   0.000000   )
 ( -0.188753   0.000000     0.144662   0.000000     0.124565   0.000000   )
 (  0.188752   0.000000     0.144663   0.000000     0.124566   0.000000   )
 (  0.188753   0.000000     0.144661   0.000000    -0.124564   0.000000   )
 ( -0.188753   0.000000     0.144663   0.000000    -0.124566   0.000000   )
 (  0.205938   0.000000     0.000006   0.000000     0.000005   0.000000   )
 ( -0.205936   0.000000    -0.000003   0.000000    -0.000002   0.000000   )
 ( -0.205938   0.000000     0.000003   0.000000    -0.000001   0.000000   )
 (  0.205937   0.000000    -0.000005   0.000000     0.000005   0.000000   )
 ( -0.061498   0.000000    -0.000003   0.000000     0.000006   0.000000   )
 (  0.061501   0.000000     0.000002   0.000000    -0.000002   0.000000   )
 (  0.061499   0.000000    -0.000001   0.000000    -0.000002   0.000000   )
 ( -0.061500   0.000000     0.000004   0.000000     0.000006   0.000000   )
     freq (    4) =      -1.020564 [THz] =     -34.042350 [cm-1]
 ( -0.000001   0.000000    -0.045624   0.000000     0.003162   0.000000   )
 (  0.000003   0.000000     0.045624   0.000000    -0.003160   0.000000   )
 (  0.000001   0.000000    -0.045624   0.000000    -0.003160   0.000000   )
 ( -0.000003   0.000000     0.045624   0.000000     0.003162   0.000000   )
 ( -0.000003   0.000000     0.025146   0.000000    -0.088529   0.000000   )
 ( -0.000002   0.000000    -0.025146   0.000000     0.088531   0.000000   )
 (  0.000003   0.000000     0.025146   0.000000     0.088531   0.000000   )
 (  0.000001   0.000000    -0.025146   0.000000    -0.088529   0.000000   )
 ( -0.007724   0.000000     0.001737   0.000000    -0.052654   0.000000   )
 ( -0.007727   0.000000    -0.001739   0.000000     0.052653   0.000000   )
 (  0.007724   0.000000     0.001737   0.000000     0.052655   0.000000   )
 (  0.007727   0.000000    -0.001739   0.000000    -0.052652   0.000000   )
 (  0.007725   0.000000    -0.001746   0.000000     0.052657   0.000000   )
 (  0.007728   0.000000     0.001749   0.000000    -0.052654   0.000000   )
 ( -0.007726   0.000000    -0.001746   0.000000    -0.052656   0.000000   )
 ( -0.007729   0.000000     0.001748   0.000000     0.052655   0.000000   )
 (  0.000006   0.000000    -0.291741   0.000000    -0.219375   0.000000   )
 (  0.000002   0.000000     0.291744   0.000000     0.219379   0.000000   )
 ( -0.000007   0.000000    -0.291744   0.000000     0.219379   0.000000   )
 ( -0.000003   0.000000     0.291742   0.000000    -0.219375   0.000000   )
 (  0.000006   0.000000     0.164984   0.000000    -0.270752   0.000000   )
 (  0.000007   0.000000    -0.164987   0.000000     0.270756   0.000000   )
 ( -0.000007   0.000000     0.164987   0.000000     0.270756   0.000000   )
 ( -0.000008   0.000000    -0.164985   0.000000    -0.270752   0.000000   )
     freq (    5) =      -0.939372 [THz] =     -31.334094 [cm-1]
 (  0.052969   0.000000     0.000001   0.000000    -0.000001   0.000000   )
 (  0.052969   0.000000    -0.000001   0.000000    -0.000001   0.000000   )
 ( -0.052969   0.000000     0.000001   0.000000    -0.000001   0.000000   )
 ( -0.052968   0.000000    -0.000001   0.000000    -0.000001   0.000000   )
 ( -0.100360   0.000000    -0.000001   0.000000     0.000001   0.000000   )
 ( -0.100360   0.000000     0.000001   0.000000    -0.000003   0.000000   )
 (  0.100360   0.000000    -0.000000   0.000000    -0.000003   0.000000   )
 (  0.100360   0.000000     0.000001   0.000000     0.000001   0.000000   )
 (  0.037252   0.000000    -0.205320   0.000000     0.044954   0.000000   )
 (  0.037252   0.000000     0.205320   0.000000    -0.044955   0.000000   )
 ( -0.037252   0.000000    -0.205320   0.000000    -0.044955   0.000000   )
 ( -0.037252   0.000000     0.205320   0.000000     0.044954   0.000000   )
 (  0.037252   0.000000    -0.205321   0.000000     0.044952   0.000000   )
 (  0.037252   0.000000     0.205320   0.000000    -0.044953   0.000000   )
 ( -0.037252   0.000000    -0.205320   0.000000    -0.044953   0.000000   )
 ( -0.037251   0.000000     0.205320   0.000000     0.044952   0.000000   )
 (  0.197344   0.000000     0.000005   0.000000     0.000003   0.000000   )
 (  0.197344   0.000000    -0.000008   0.000000    -0.000007   0.000000   )
 ( -0.197344   0.000000     0.000008   0.000000    -0.000007   0.000000   )
 ( -0.197345   0.000000    -0.000005   0.000000     0.000003   0.000000   )
 (  0.327181   0.000000    -0.000003   0.000000     0.000004   0.000000   )
 (  0.327181   0.000000     0.000005   0.000000    -0.000008   0.000000   )
 ( -0.327182   0.000000    -0.000005   0.000000    -0.000008   0.000000   )
 ( -0.327182   0.000000     0.000003   0.000000     0.000004   0.000000   )
     freq (    6) =      -0.803655 [THz] =     -26.807040 [cm-1]
 (  0.000002   0.000000    -0.038638   0.000000     0.109514   0.000000   )
 ( -0.000000   0.000000    -0.038639   0.000000     0.109514   0.000000   )
 ( -0.000002   0.000000     0.038639   0.000000     0.109514   0.000000   )
 (  0.000001   0.000000     0.038638   0.000000     0.109514   0.000000   )
 ( -0.000001   0.000000     0.002870   0.000000     0.163259   0.000000   )
 ( -0.000001   0.000000     0.002870   0.000000     0.163257   0.000000   )
 (  0.000001   0.000000    -0.002870   0.000000     0.163257   0.000000   )
 (  0.000001   0.000000    -0.002870   0.000000     0.163259   0.000000   )
 (  0.001885   0.000000     0.015884   0.000000     0.078341   0.000000   )
 ( -0.001884   0.000000     0.015888   0.000000     0.078340   0.000000   )
 (  0.001885   0.000000    -0.015886   0.000000     0.078338   0.000000   )
 ( -0.001886   0.000000    -0.015883   0.000000     0.078340   0.000000   )
 (  0.001886   0.000000     0.015883   0.000000     0.078339   0.000000   )
 ( -0.001885   0.000000     0.015887   0.000000     0.078339   0.000000   )
 (  0.001884   0.000000    -0.015888   0.000000     0.078340   0.000000   )
 ( -0.001884   0.000000    -0.015884   0.000000     0.078340   0.000000   )
 (  0.000001   0.000000     0.180080   0.000000     0.257576   0.000000   )
 (  0.000002   0.000000     0.180075   0.000000     0.257572   0.000000   )
 ( -0.000001   0.000000    -0.180074   0.000000     0.257572   0.000000   )
 ( -0.000003   0.000000    -0.180080   0.000000     0.257576   0.000000   )
 (  0.000003   0.000000    -0.130123   0.000000     0.285243   0.000000   )
 (  0.000003   0.000000    -0.130121   0.000000     0.285239   0.000000   )
 ( -0.000004   0.000000     0.130121   0.000000     0.285239   0.000000   )
 ( -0.000003   0.000000     0.130124   0.000000     0.285244   0.000000   )
     freq (    7) =      -0.141839 [THz] =      -4.731254 [cm-1]
 (  0.000001   0.000000     0.208009   0.000000    -0.004270   0.000000   )
 ( -0.000000   0.000000     0.208009   0.000000    -0.004270   0.000000   )
 ( -0.000001   0.000000     0.208009   0.000000     0.004270   0.000000   )
 (  0.000001   0.000000     0.208009   0.000000     0.004270   0.000000   )
 (  0.000000   0.000000     0.203647   0.000000     0.006115   0.000000   )
 ( -0.000000   0.000000     0.203647   0.000000     0.006115   0.000000   )
 ( -0.000000   0.000000     0.203647   0.000000    -0.006115   0.000000   )
 (  0.000000   0.000000     0.203647   0.000000    -0.006115   0.000000   )
 ( -0.000613   0.000000     0.204612   0.000000     0.001785   0.000000   )
 (  0.000613   0.000000     0.204612   0.000000     0.001785   0.000000   )
 (  0.000613   0.000000     0.204612   0.000000    -0.001785   0.000000   )
 ( -0.000613   0.000000     0.204612   0.000000    -0.001785   0.000000   )
 ( -0.000612   0.000000     0.204612   0.000000     0.001784   0.000000   )
 (  0.000612   0.000000     0.204612   0.000000     0.001784   0.000000   )
 (  0.000613   0.000000     0.204612   0.000000    -0.001784   0.000000   )
 ( -0.000612   0.000000     0.204612   0.000000    -0.001784   0.000000   )
 ( -0.000000   0.000000     0.195262   0.000000    -0.011418   0.000000   )
 (  0.000001   0.000000     0.195261   0.000000    -0.011418   0.000000   )
 (  0.000001   0.000000     0.195261   0.000000     0.011417   0.000000   )
 ( -0.000001   0.000000     0.195262   0.000000     0.011417   0.000000   )
 (  0.000000   0.000000     0.207663   0.000000    -0.009163   0.000000   )
 (  0.000000   0.000000     0.207663   0.000000    -0.009163   0.000000   )
 ( -0.000000   0.000000     0.207663   0.000000     0.009162   0.000000   )
 (  0.000001   0.000000     0.207663   0.000000     0.009162   0.000000   )
     freq (    8) =       0.207598 [THz] =       6.924736 [cm-1]
 ( -0.227906   0.000000     0.000000   0.000000     0.000000   0.000000   )
 ( -0.227906   0.000000     0.000000   0.000000     0.000000   0.000000   )
 ( -0.227906   0.000000     0.000000   0.000000     0.000000   0.000000   )
 ( -0.227906   0.000000     0.000000   0.000000     0.000000   0.000000   )
 ( -0.198893   0.000000     0.000000   0.000000     0.000000   0.000000   )
 ( -0.198893   0.000000     0.000000   0.000000    -0.000000   0.000000   )
 ( -0.198893   0.000000     0.000000   0.000000    -0.000000   0.000000   )
 ( -0.198893   0.000000     0.000000   0.000000     0.000000   0.000000   )
 ( -0.222647   0.000000     0.034135   0.000000     0.004895   0.000000   )
 ( -0.222647   0.000000    -0.034134   0.000000    -0.004895   0.000000   )
 ( -0.222647   0.000000    -0.034134   0.000000     0.004895   0.000000   )
 ( -0.222647   0.000000     0.034134   0.000000    -0.004895   0.000000   )
 ( -0.222647   0.000000     0.034134   0.000000     0.004895   0.000000   )
 ( -0.222647   0.000000    -0.034134   0.000000    -0.004895   0.000000   )
 ( -0.222647   0.000000    -0.034134   0.000000     0.004895   0.000000   )
 ( -0.222647   0.000000     0.034134   0.000000    -0.004895   0.000000   )
 ( -0.169396   0.000000     0.000001   0.000000     0.000001   0.000000   )
 ( -0.169396   0.000000    -0.000001   0.000000    -0.000001   0.000000   )
 ( -0.169396   0.000000     0.000001   0.000000    -0.000001   0.000000   )
 ( -0.169395   0.000000    -0.000001   0.000000     0.000001   0.000000   )
 ( -0.168178   0.000000    -0.000000   0.000000     0.000001   0.000000   )
 ( -0.168178   0.000000     0.000001   0.000000    -0.000001   0.000000   )
 ( -0.168178   0.000000    -0.000000   0.000000    -0.000001   0.000000   )
 ( -0.168178   0.000000     0.000001   0.000000     0.000001   0.000000   )
     freq (    9) =       1.130469 [THz] =      37.708394 [cm-1]
 (  0.000000   0.000000    -0.078980   0.000000    -0.152632   0.000000   )
 (  0.000000   0.000000    -0.078980   0.000000    -0.152632   0.000000   )
 ( -0.000000   0.000000     0.078980   0.000000    -0.152632   0.000000   )
 (  0.000000   0.000000     0.078980   0.000000    -0.152632   0.000000   )
 ( -0.000000   0.000000     0.016783   0.000000    -0.069884   0.000000   )
 ( -0.000000   0.000000     0.016783   0.000000    -0.069885   0.000000   )
 ( -0.000000   0.000000    -0.016783   0.000000    -0.069884   0.000000   )
 ( -0.000000   0.000000    -0.016783   0.000000    -0.069884   0.000000   )
 (  0.002111   0.000000     0.037028   0.000000    -0.199646   0.000000   )
 ( -0.002111   0.000000     0.037028   0.000000    -0.199646   0.000000   )
 (  0.002110   0.000000    -0.037028   0.000000    -0.199646   0.000000   )
 ( -0.002111   0.000000    -0.037028   0.000000    -0.199646   0.000000   )
 (  0.002111   0.000000     0.037028   0.000000    -0.199646   0.000000   )
 ( -0.002111   0.000000     0.037028   0.000000    -0.199646   0.000000   )
 (  0.002111   0.000000    -0.037028   0.000000    -0.199646   0.000000   )
 ( -0.002111   0.000000    -0.037028   0.000000    -0.199646   0.000000   )
 ( -0.000000   0.000000     0.263537   0.000000     0.075184   0.000000   )
 (  0.000000   0.000000     0.263536   0.000000     0.075184   0.000000   )
 (  0.000000   0.000000    -0.263536   0.000000     0.075184   0.000000   )
 ( -0.000000   0.000000    -0.263537   0.000000     0.075184   0.000000   )
 (  0.000000   0.000000    -0.209352   0.000000     0.117897   0.000000   )
 ( -0.000000   0.000000    -0.209352   0.000000     0.117896   0.000000   )
 ( -0.000001   0.000000     0.209352   0.000000     0.117896   0.000000   )
 (  0.000000   0.000000     0.209352   0.000000     0.117897   0.000000   )
     freq (   10) =       1.745125 [THz] =      58.211090 [cm-1]
 (  0.278157   0.000000    -0.000000   0.000000     0.000000   0.000000   )
 (  0.278157   0.000000     0.000000   0.000000    -0.000000   0.000000   )
 ( -0.278156   0.000000    -0.000000   0.000000    -0.000000   0.000000   )
 ( -0.278157   0.000000     0.000000   0.000000     0.000000   0.000000   )
 (  0.051151   0.000000    -0.000000   0.000000    -0.000000   0.000000   )
 (  0.051152   0.000000    -0.000000   0.000000     0.000000   0.000000   )
 ( -0.051151   0.000000    -0.000000   0.000000    -0.000000   0.000000   )
 ( -0.051152   0.000000     0.000000   0.000000    -0.000000   0.000000   )
 ( -0.029192   0.000000     0.081787   0.000000     0.175685   0.000000   )
 ( -0.029192   0.000000    -0.081787   0.000000    -0.175685   0.000000   )
 (  0.029192   0.000000     0.081787   0.000000    -0.175685   0.000000   )
 (  0.029192   0.000000    -0.081787   0.000000     0.175685   0.000000   )
 ( -0.029192   0.000000     0.081787   0.000000     0.175685   0.000000   )
 ( -0.029192   0.000000    -0.081787   0.000000    -0.175685   0.000000   )
 (  0.029192   0.000000     0.081787   0.000000    -0.175685   0.000000   )
 (  0.029192   0.000000    -0.081787   0.000000     0.175686   0.000000   )
 ( -0.303892   0.000000    -0.000000   0.000000    -0.000000   0.000000   )
 ( -0.303892   0.000000    -0.000000   0.000000    -0.000000   0.000000   )
 (  0.303892   0.000000    -0.000000   0.000000     0.000000   0.000000   )
 (  0.303892   0.000000     0.000000   0.000000    -0.000000   0.000000   )
 (  0.029137   0.000000     0.000000   0.000000    -0.000000   0.000000   )
 (  0.029136   0.000000    -0.000000   0.000000    -0.000000   0.000000   )
 ( -0.029136   0.000000     0.000000   0.000000     0.000000   0.000000   )
 ( -0.029136   0.000000    -0.000000   0.000000    -0.000000   0.000000   )
     freq (   11) =       2.375049 [THz] =      79.223104 [cm-1]
 ( -0.000000   0.000000     0.296298   0.000000    -0.215701   0.000000   )
 (  0.000001   0.000000    -0.296298   0.000000     0.215701   0.000000   )
 (  0.000000   0.000000     0.296298   0.000000     0.215701   0.000000   )
 ( -0.000001   0.000000    -0.296298   0.000000    -0.215701   0.000000   )
 ( -0.000000   0.000000     0.097795   0.000000    -0.126142   0.000000   )
 (  0.000000   0.000000    -0.097795   0.000000     0.126142   0.000000   )
 ( -0.000000   0.000000     0.097795   0.000000     0.126142   0.000000   )
 ( -0.000000   0.000000    -0.097795   0.000000    -0.126142   0.000000   )
 ( -0.011857   0.000000    -0.069242   0.000000     0.133616   0.000000   )
 ( -0.011857   0.000000     0.069241   0.000000    -0.133614   0.000000   )
 (  0.011857   0.000000    -0.069242   0.000000    -0.133616   0.000000   )
 (  0.011857   0.000000     0.069241   0.000000     0.133615   0.000000   )
 (  0.011857   0.000000     0.069242   0.000000    -0.133616   0.000000   )
 (  0.011857   0.000000    -0.069242   0.000000     0.133614   0.000000   )
 ( -0.011857   0.000000     0.069242   0.000000     0.133616   0.000000   )
 ( -0.011857   0.000000    -0.069242   0.000000    -0.133614   0.000000   )
 ( -0.000002   0.000000    -0.074514   0.000000    -0.124166   0.000000   )
 (  0.000001   0.000000     0.074514   0.000000     0.124166   0.000000   )
 (  0.000001   0.000000    -0.074514   0.000000     0.124166   0.000000   )
 ( -0.000001   0.000000     0.074514   0.000000    -0.124166   0.000000   )
 (  0.000001   0.000000    -0.098813   0.000000    -0.117879   0.000000   )
 ( -0.000002   0.000000     0.098813   0.000000     0.117879   0.000000   )
 ( -0.000001   0.000000    -0.098812   0.000000     0.117879   0.000000   )
 (  0.000001   0.000000     0.098812   0.000000    -0.117879   0.000000   )
     freq (   12) =       2.440945 [THz] =      81.421159 [cm-1]
 ( -0.077394   0.000000    -0.000000   0.000000     0.000000   0.000000   )
 (  0.077394   0.000000     0.000001   0.000000    -0.000000   0.000000   )
 (  0.077394   0.000000    -0.000000   0.000000    -0.000000   0.000000   )
 ( -0.077394   0.000000     0.000000   0.000000     0.000000   0.000000   )
 ( -0.022247   0.000000    -0.000000   0.000000     0.000000   0.000000   )
 (  0.022247   0.000000     0.000000   0.000000    -0.000000   0.000000   )
 (  0.022247   0.000000    -0.000000   0.000000    -0.000000   0.000000   )
 ( -0.022246   0.000000     0.000000   0.000000     0.000000   0.000000   )
 (  0.029740   0.000000    -0.041579   0.000000     0.208864   0.000000   )
 ( -0.029740   0.000000    -0.041579   0.000000     0.208864   0.000000   )
 ( -0.029740   0.000000    -0.041579   0.000000    -0.208863   0.000000   )
 (  0.029740   0.000000    -0.041579   0.000000    -0.208864   0.000000   )
 ( -0.029740   0.000000     0.041579   0.000000    -0.208863   0.000000   )
 (  0.029740   0.000000     0.041579   0.000000    -0.208864   0.000000   )
 (  0.029740   0.000000     0.041579   0.000000     0.208863   0.000000   )
 ( -0.029740   0.000000     0.041579   0.000000     0.208864   0.000000   )
 ( -0.266978   0.000000     0.000000   0.000000     0.000000   0.000000   )
 (  0.266978   0.000000    -0.000000   0.000000    -0.000000   0.000000   )
 (  0.266978   0.000000     0.000000   0.000000    -0.000000   0.000000   )
 ( -0.266978   0.000000    -0.000000   0.000000     0.000000   0.000000   )
 (  0.282424   0.000000     0.000000   0.000000     0.000000   0.000000   )
 ( -0.282424   0.000000    -0.000000   0.000000    -0.000000   0.000000   )
 ( -0.282424   0.000000    -0.000000   0.000000    -0.000000   0.000000   )
 (  0.282424   0.000000    -0.000000   0.000000     0.000000   0.000000   )
     freq (   13) =       2.623316 [THz] =      87.504399 [cm-1]
 ( -0.000000   0.000000    -0.068958   0.000000     0.001306   0.000000   )
 (  0.000000   0.000000    -0.068958   0.000000     0.001306   0.000000   )
 ( -0.000000   0.000000    -0.068958   0.000000    -0.001306   0.000000   )
 ( -0.000000   0.000000    -0.068958   0.000000    -0.001306   0.000000   )
 ( -0.000000   0.000000     0.063261   0.000000    -0.093005   0.000000   )
 (  0.000000   0.000000     0.063261   0.000000    -0.093005   0.000000   )
 (  0.000000   0.000000     0.063261   0.000000     0.093005   0.000000   )
 ( -0.000000   0.000000     0.063261   0.000000     0.093005   0.000000   )
 ( -0.007281   0.000000     0.053651   0.000000     0.062990   0.000000   )
 (  0.007281   0.000000     0.053651   0.000000     0.062989   0.000000   )
 (  0.007281   0.000000     0.053651   0.000000    -0.062990   0.000000   )
 ( -0.007281   0.000000     0.053651   0.000000    -0.062990   0.000000   )
 ( -0.007281   0.000000     0.053651   0.000000     0.062989   0.000000   )
 (  0.007281   0.000000     0.053651   0.000000     0.062990   0.000000   )
 (  0.007281   0.000000     0.053651   0.000000    -0.062990   0.000000   )
 ( -0.007281   0.000000     0.053651   0.000000    -0.062989   0.000000   )
 ( -0.000000   0.000000     0.304262   0.000000     0.219796   0.000000   )
 (  0.000000   0.000000     0.304262   0.000000     0.219796   0.000000   )
 ( -0.000000   0.000000     0.304263   0.000000    -0.219797   0.000000   )
 (  0.000000   0.000000     0.304262   0.000000    -0.219796   0.000000   )
 (  0.000000   0.000000    -0.109935   0.000000     0.256557   0.000000   )
 (  0.000000   0.000000    -0.109935   0.000000     0.256557   0.000000   )
 ( -0.000000   0.000000    -0.109935   0.000000    -0.256557   0.000000   )
 (  0.000000   0.000000    -0.109935   0.000000    -0.256556   0.000000   )
     freq (   14) =       2.993256 [THz] =      99.844261 [cm-1]
 (  0.000000   0.000000     0.273119   0.000000    -0.035768   0.000000   )
 ( -0.000000   0.000000    -0.273119   0.000000     0.035768   0.000000   )
 (  0.000000   0.000000    -0.273118   0.000000    -0.035768   0.000000   )
 ( -0.000000   0.000000     0.273119   0.000000     0.035768   0.000000   )
 (  0.000000   0.000000    -0.172673   0.000000    -0.038567   0.000000   )
 (  0.000000   0.000000     0.172673   0.000000     0.038567   0.000000   )
 ( -0.000000   0.000000     0.172673   0.000000    -0.038567   0.000000   )
 ( -0.000000   0.000000    -0.172673   0.000000     0.038567   0.000000   )
 (  0.026268   0.000000     0.097940   0.000000     0.127289   0.000000   )
 (  0.026268   0.000000    -0.097940   0.000000    -0.127289   0.000000   )
 (  0.026267   0.000000    -0.097940   0.000000     0.127289   0.000000   )
 (  0.026267   0.000000     0.097940   0.000000    -0.127289   0.000000   )
 ( -0.026267   0.000000    -0.097940   0.000000    -0.127289   0.000000   )
 ( -0.026267   0.000000     0.097940   0.000000     0.127289   0.000000   )
 ( -0.026268   0.000000     0.097940   0.000000    -0.127289   0.000000   )
 ( -0.026268   0.000000    -0.097940   0.000000     0.127289   0.000000   )
 ( -0.000000   0.000000    -0.288863   0.000000    -0.038564   0.000000   )
 ( -0.000000   0.000000     0.288862   0.000000     0.038564   0.000000   )
 (  0.000000   0.000000     0.288862   0.000000    -0.038564   0.000000   )
 ( -0.000000   0.000000    -0.288863   0.000000     0.038564   0.000000   )
 (  0.000000   0.000000    -0.040348   0.000000    -0.057423   0.000000   )
 ( -0.000000   0.000000     0.040348   0.000000     0.057422   0.000000   )
 (  0.000000   0.000000     0.040349   0.000000    -0.057422   0.000000   )
 (  0.000000   0.000000    -0.040348   0.000000     0.057423   0.000000   )
     freq (   15) =       3.265547 [THz] =     108.926910 [cm-1]
 (  0.000001   0.000000     0.086310   0.000000    -0.002363   0.000000   )
 ( -0.000001   0.000000    -0.086310   0.000000     0.002363   0.000000   )
 (  0.000001   0.000000    -0.086310   0.000000    -0.002363   0.000000   )
 ( -0.000001   0.000000     0.086310   0.000000     0.002363   0.000000   )
 (  0.000000   0.000000     0.010933   0.000000    -0.052097   0.000000   )
 (  0.000000   0.000000    -0.010933   0.000000     0.052097   0.000000   )
 ( -0.000000   0.000000    -0.010933   0.000000    -0.052097   0.000000   )
 ( -0.000000   0.000000     0.010933   0.000000     0.052097   0.000000   )
 ( -0.001952   0.000000     0.009000   0.000000    -0.130291   0.000000   )
 ( -0.001949   0.000000    -0.008996   0.000000     0.130292   0.000000   )
 ( -0.001953   0.000000    -0.009000   0.000000    -0.130291   0.000000   )
 ( -0.001950   0.000000     0.008997   0.000000     0.130292   0.000000   )
 (  0.001953   0.000000    -0.009000   0.000000     0.130291   0.000000   )
 (  0.001950   0.000000     0.008996   0.000000    -0.130292   0.000000   )
 (  0.001952   0.000000     0.009000   0.000000     0.130291   0.000000   )
 (  0.001949   0.000000    -0.008996   0.000000    -0.130292   0.000000   )
 (  0.000001   0.000000     0.294352   0.000000     0.189659   0.000000   )
 ( -0.000002   0.000000    -0.294351   0.000000    -0.189658   0.000000   )
 (  0.000002   0.000000    -0.294351   0.000000     0.189658   0.000000   )
 ( -0.000002   0.000000     0.294352   0.000000    -0.189658   0.000000   )
 (  0.000000   0.000000    -0.176450   0.000000     0.227689   0.000000   )
 ( -0.000000   0.000000     0.176450   0.000000    -0.227688   0.000000   )
 (  0.000001   0.000000     0.176450   0.000000     0.227688   0.000000   )
 ( -0.000000   0.000000    -0.176450   0.000000    -0.227688   0.000000   )
     freq (   16) =       3.298526 [THz] =     110.027001 [cm-1]
 (  0.157863   0.000000    -0.000001   0.000000     0.000000   0.000000   )
 ( -0.157863   0.000000     0.000001   0.000000    -0.000000   0.000000   )
 (  0.157863   0.000000     0.000001   0.000000     0.000000   0.000000   )
 ( -0.157863   0.000000    -0.000001   0.000000     0.000000   0.000000   )
 (  0.019860   0.000000    -0.000000   0.000000     0.000000   0.000000   )
 ( -0.019860   0.000000     0.000000   0.000000    -0.000001   0.000000   )
 (  0.019860   0.000000     0.000000   0.000000     0.000001   0.000000   )
 ( -0.019860   0.000000    -0.000000   0.000000    -0.000001   0.000000   )
 ( -0.188408   0.000000     0.213289   0.000000     0.093290   0.000000   )
 (  0.188408   0.000000     0.213289   0.000000     0.093287   0.000000   )
 ( -0.188408   0.000000    -0.213289   0.000000     0.093290   0.000000   )
 (  0.188408   0.000000    -0.213289   0.000000     0.093288   0.000000   )
 (  0.188408   0.000000    -0.213289   0.000000    -0.093290   0.000000   )
 ( -0.188408   0.000000    -0.213289   0.000000    -0.093288   0.000000   )
 (  0.188408   0.000000     0.213289   0.000000    -0.093290   0.000000   )
 ( -0.188408   0.000000     0.213289   0.000000    -0.093288   0.000000   )
 (  0.208099   0.000000    -0.000003   0.000000    -0.000002   0.000000   )
 ( -0.208098   0.000000     0.000003   0.000000     0.000002   0.000000   )
 (  0.208098   0.000000     0.000003   0.000000    -0.000002   0.000000   )
 ( -0.208098   0.000000    -0.000003   0.000000     0.000002   0.000000   )
 (  0.044661   0.000000     0.000002   0.000000    -0.000002   0.000000   )
 ( -0.044661   0.000000    -0.000002   0.000000     0.000002   0.000000   )
 (  0.044661   0.000000    -0.000002   0.000000    -0.000003   0.000000   )
 ( -0.044662   0.000000     0.000002   0.000000     0.000002   0.000000   )
     freq (   17) =       3.408424 [THz] =     113.692794 [cm-1]
 (  0.000000   0.000000     0.340453   0.000000    -0.133895   0.000000   )
 ( -0.000000   0.000000     0.340452   0.000000    -0.133895   0.000000   )
 (  0.000000   0.000000    -0.340452   0.000000    -0.133895   0.000000   )
 ( -0.000000   0.000000    -0.340453   0.000000    -0.133895   0.000000   )
 (  0.000000   0.000000    -0.112953   0.000000     0.110035   0.000000   )
 ( -0.000000   0.000000    -0.112953   0.000000     0.110035   0.000000   )
 (  0.000000   0.000000     0.112953   0.000000     0.110035   0.000000   )
 ( -0.000000   0.000000     0.112953   0.000000     0.110034   0.000000   )
 ( -0.005414   0.000000    -0.073466   0.000000     0.030481   0.000000   )
 (  0.005414   0.000000    -0.073466   0.000000     0.030481   0.000000   )
 ( -0.005414   0.000000     0.073466   0.000000     0.030481   0.000000   )
 (  0.005414   0.000000     0.073466   0.000000     0.030481   0.000000   )
 ( -0.005413   0.000000    -0.073467   0.000000     0.030481   0.000000   )
 (  0.005413   0.000000    -0.073467   0.000000     0.030481   0.000000   )
 ( -0.005413   0.000000     0.073467   0.000000     0.030481   0.000000   )
 (  0.005413   0.000000     0.073467   0.000000     0.030481   0.000000   )
 (  0.000000   0.000000     0.166794   0.000000     0.144874   0.000000   )
 ( -0.000000   0.000000     0.166794   0.000000     0.144874   0.000000   )
 (  0.000000   0.000000    -0.166794   0.000000     0.144874   0.000000   )
 ( -0.000000   0.000000    -0.166795   0.000000     0.144875   0.000000   )
 (  0.000000   0.000000     0.014077   0.000000     0.171987   0.000000   )
 (  0.000000   0.000000     0.014077   0.000000     0.171988   0.000000   )
 (  0.000000   0.000000    -0.014077   0.000000     0.171988   0.000000   )
 ( -0.000000   0.000000    -0.014077   0.000000     0.171988   0.000000   )
     freq (   18) =       3.657733 [THz] =     122.008830 [cm-1]
 ( -0.000000   0.000000     0.283626   0.000000     0.374508   0.000000   )
 ( -0.000000   0.000000    -0.283626   0.000000    -0.374508   0.000000   )
 ( -0.000000   0.000000     0.283626   0.000000    -0.374508   0.000000   )
 ( -0.000000   0.000000    -0.283626   0.000000     0.374508   0.000000   )
 ( -0.000000   0.000000    -0.021767   0.000000     0.000213   0.000000   )
 ( -0.000000   0.000000     0.021767   0.000000    -0.000213   0.000000   )
 (  0.000000   0.000000    -0.021767   0.000000    -0.000213   0.000000   )
 (  0.000000   0.000000     0.021767   0.000000     0.000213   0.000000   )
 (  0.007347   0.000000     0.016563   0.000000    -0.080618   0.000000   )
 (  0.007347   0.000000    -0.016563   0.000000     0.080618   0.000000   )
 ( -0.007347   0.000000     0.016563   0.000000     0.080618   0.000000   )
 ( -0.007347   0.000000    -0.016563   0.000000    -0.080618   0.000000   )
 ( -0.007348   0.000000    -0.016563   0.000000     0.080618   0.000000   )
 ( -0.007348   0.000000     0.016563   0.000000    -0.080618   0.000000   )
 (  0.007348   0.000000    -0.016563   0.000000    -0.080618   0.000000   )
 (  0.007348   0.000000     0.016563   0.000000     0.080618   0.000000   )
 (  0.000000   0.000000    -0.065737   0.000000    -0.051891   0.000000   )
 (  0.000000   0.000000     0.065737   0.000000     0.051891   0.000000   )
 ( -0.000000   0.000000    -0.065737   0.000000     0.051891   0.000000   )
 (  0.000000   0.000000     0.065737   0.000000    -0.051891   0.000000   )
 (  0.000000   0.000000     0.072603   0.000000    -0.053719   0.000000   )
 (  0.000000   0.000000    -0.072603   0.000000     0.053719   0.000000   )
 (  0.000000   0.000000     0.072603   0.000000     0.053719   0.000000   )
 ( -0.000000   0.000000    -0.072603   0.000000    -0.053719   0.000000   )
     freq (   19) =       3.738519 [THz] =     124.703562 [cm-1]
 ( -0.000085   0.000000     0.000000   0.000000    -0.000000   0.000000   )
 ( -0.000084   0.000000    -0.000000   0.000000     0.000000   0.000000   )
 (  0.000084   0.000000    -0.000000   0.000000     0.000000   0.000000   )
 (  0.000085   0.000000     0.000000   0.000000    -0.000000   0.000000   )
 ( -0.174734   0.000000    -0.000000   0.000000    -0.000000   0.000000   )
 ( -0.174734   0.000000     0.000000   0.000000     0.000000   0.000000   )
 (  0.174734   0.000000     0.000000   0.000000    -0.000000   0.000000   )
 (  0.174734   0.000000    -0.000000   0.000000     0.000000   0.000000   )
 ( -0.282350   0.000000     0.148690   0.000000     0.004707   0.000000   )
 ( -0.282350   0.000000    -0.148690   0.000000    -0.004707   0.000000   )
 (  0.282350   0.000000     0.148690   0.000000    -0.004707   0.000000   )
 (  0.282350   0.000000    -0.148690   0.000000     0.004707   0.000000   )
 ( -0.282350   0.000000     0.148690   0.000000     0.004707   0.000000   )
 ( -0.282350   0.000000    -0.148690   0.000000    -0.004707   0.000000   )
 (  0.282350   0.000000     0.148690   0.000000    -0.004707   0.000000   )
 (  0.282350   0.000000    -0.148690   0.000000     0.004707   0.000000   )
 (  0.088865   0.000000     0.000000   0.000000     0.000000   0.000000   )
 (  0.088866   0.000000    -0.000000   0.000000    -0.000000   0.000000   )
 ( -0.088866   0.000000    -0.000000   0.000000     0.000000   0.000000   )
 ( -0.088865   0.000000     0.000000   0.000000    -0.000000   0.000000   )
 (  0.088690   0.000000    -0.000000   0.000000     0.000000   0.000000   )
 (  0.088690   0.000000     0.000000   0.000000    -0.000000   0.000000   )
 ( -0.088690   0.000000     0.000000   0.000000     0.000000   0.000000   )
 ( -0.088690   0.000000    -0.000000   0.000000    -0.000000   0.000000   )
     freq (   20) =       3.822029 [THz] =     127.489177 [cm-1]
 ( -0.131923   0.000000    -0.000000   0.000000     0.000000   0.000000   )
 (  0.131923   0.000000    -0.000000   0.000000     0.000000   0.000000   )
 ( -0.131923   0.000000    -0.000000   0.000000    -0.000000   0.000000   )
 (  0.131923   0.000000    -0.000000   0.000000    -0.000000   0.000000   )
 (  0.071094   0.000000     0.000000   0.000000     0.000000   0.000000   )
 ( -0.071094   0.000000    -0.000000   0.000000     0.000000   0.000000   )
 (  0.071094   0.000000     0.000000   0.000000    -0.000000   0.000000   )
 ( -0.071094   0.000000     0.000000   0.000000    -0.000000   0.000000   )
 ( -0.191559   0.000000     0.179764   0.000000    -0.115848   0.000000   )
 (  0.191560   0.000000     0.179765   0.000000    -0.115848   0.000000   )
 ( -0.191560   0.000000    -0.179764   0.000000    -0.115848   0.000000   )
 (  0.191559   0.000000    -0.179764   0.000000    -0.115848   0.000000   )
 (  0.191560   0.000000    -0.179764   0.000000     0.115848   0.000000   )
 ( -0.191559   0.000000    -0.179764   0.000000     0.115848   0.000000   )
 (  0.191559   0.000000     0.179764   0.000000     0.115848   0.000000   )
 ( -0.191560   0.000000     0.179764   0.000000     0.115848   0.000000   )
 ( -0.123726   0.000000     0.000000   0.000000    -0.000000   0.000000   )
 (  0.123726   0.000000    -0.000000   0.000000    -0.000000   0.000000   )
 ( -0.123726   0.000000    -0.000000   0.000000     0.000000   0.000000   )
 (  0.123726   0.000000     0.000000   0.000000     0.000000   0.000000   )
 (  0.217651   0.000000     0.000000   0.000000    -0.000000   0.000000   )
 ( -0.217651   0.000000     0.000000   0.000000    -0.000000   0.000000   )
 (  0.217651   0.000000     0.000000   0.000000     0.000000   0.000000   )
 ( -0.217650   0.000000    -0.000000   0.000000     0.000000   0.000000   )
     freq (   21) =       3.977041 [THz] =     132.659813 [cm-1]
 ( -0.000000   0.000000     0.121463   0.000000    -0.358891   0.000000   )
 (  0.000000   0.000000     0.121463   0.000000    -0.358891   0.000000   )
 ( -0.000000   0.000000     0.121463   0.000000     0.358891   0.000000   )
 (  0.000000   0.000000     0.121463   0.000000     0.358891   0.000000   )
 (  0.000000   0.000000    -0.128972   0.000000    -0.072116   0.000000   )
 ( -0.000000   0.000000    -0.128972   0.000000    -0.072116   0.000000   )
 ( -0.000000   0.000000    -0.128972   0.000000     0.072116   0.000000   )
 ( -0.000000   0.000000    -0.128972   0.000000     0.072116   0.000000   )
 ( -0.014369   0.000000    -0.125677   0.000000     0.025324   0.000000   )
 (  0.014369   0.000000    -0.125677   0.000000     0.025324   0.000000   )
 (  0.014369   0.000000    -0.125678   0.000000    -0.025324   0.000000   )
 ( -0.014369   0.000000    -0.125677   0.000000    -0.025324   0.000000   )
 ( -0.014369   0.000000    -0.125677   0.000000     0.025324   0.000000   )
 (  0.014369   0.000000    -0.125678   0.000000     0.025324   0.000000   )
 (  0.014369   0.000000    -0.125677   0.000000    -0.025324   0.000000   )
 ( -0.014369   0.000000    -0.125677   0.000000    -0.025324   0.000000   )
 ( -0.000000   0.000000    -0.025103   0.000000     0.104599   0.000000   )
 (  0.000000   0.000000    -0.025103   0.000000     0.104598   0.000000   )
 ( -0.000000   0.000000    -0.025103   0.000000    -0.104598   0.000000   )
 (  0.000000   0.000000    -0.025103   0.000000    -0.104599   0.000000   )
 (  0.000000   0.000000    -0.167782   0.000000     0.107716   0.000000   )
 ( -0.000000   0.000000    -0.167781   0.000000     0.107716   0.000000   )
 (  0.000000   0.000000    -0.167781   0.000000    -0.107716   0.000000   )
 ( -0.000000   0.000000    -0.167782   0.000000    -0.107716   0.000000   )
     freq (   22) =       4.290326 [THz] =     143.109855 [cm-1]
 (  0.151351   0.000000    -0.000000   0.000000     0.000000   0.000000   )
 (  0.151352   0.000000    -0.000000   0.000000    -0.000000   0.000000   )
 (  0.151351   0.000000    -0.000000   0.000000    -0.000000   0.000000   )
 (  0.151351   0.000000    -0.000000   0.000000     0.000000   0.000000   )
 ( -0.129701   0.000000     0.000000   0.000000     0.000000   0.000000   )
 ( -0.129701   0.000000     0.000000   0.000000    -0.000000   0.000000   )
 ( -0.129701   0.000000     0.000000   0.000000    -0.000000   0.000000   )
 ( -0.129701   0.000000    -0.000000   0.000000     0.000000   0.000000   )
 ( -0.233925   0.000000     0.153785   0.000000    -0.097978   0.000000   )
 ( -0.233925   0.000000    -0.153784   0.000000     0.097978   0.000000   )
 ( -0.233925   0.000000    -0.153785   0.000000    -0.097977   0.000000   )
 ( -0.233926   0.000000     0.153785   0.000000     0.097977   0.000000   )
 ( -0.233925   0.000000     0.153784   0.000000    -0.097978   0.000000   )
 ( -0.233925   0.000000    -0.153785   0.000000     0.097978   0.000000   )
 ( -0.233926   0.000000    -0.153785   0.000000    -0.097977   0.000000   )
 ( -0.233925   0.000000     0.153785   0.000000     0.097977   0.000000   )
 ( -0.180465   0.000000     0.000000   0.000000     0.000000   0.000000   )
 ( -0.180465   0.000000     0.000000   0.000000    -0.000000   0.000000   )
 ( -0.180465   0.000000     0.000000   0.000000    -0.000000   0.000000   )
 ( -0.180466   0.000000    -0.000000   0.000000     0.000000   0.000000   )
 (  0.041975   0.000000    -0.000000   0.000000     0.000000   0.000000   )
 (  0.041975   0.000000     0.000000   0.000000    -0.000000   0.000000   )
 (  0.041976   0.000000     0.000000   0.000000    -0.000000   0.000000   )
 (  0.041975   0.000000     0.000000   0.000000     0.000000   0.000000   )
     freq (   23) =       4.524069 [THz] =     150.906706 [cm-1]
 ( -0.131087   0.000000     0.000000   0.000000     0.000000   0.000000   )
 (  0.131086   0.000000     0.000000   0.000000     0.000000   0.000000   )
 (  0.131087   0.000000     0.000000   0.000000    -0.000000   0.000000   )
 ( -0.131087   0.000000     0.000000   0.000000    -0.000000   0.000000   )
 (  0.048832   0.000000    -0.000000   0.000000    -0.000000   0.000000   )
 ( -0.048832   0.000000    -0.000000   0.000000    -0.000000   0.000000   )
 ( -0.048832   0.000000    -0.000000   0.000000     0.000000   0.000000   )
 (  0.048832   0.000000    -0.000000   0.000000     0.000000   0.000000   )
 ( -0.232895   0.000000     0.231262   0.000000    -0.005036   0.000000   )
 (  0.232895   0.000000     0.231262   0.000000    -0.005037   0.000000   )
 (  0.232896   0.000000     0.231262   0.000000     0.005036   0.000000   )
 ( -0.232895   0.000000     0.231262   0.000000     0.005036   0.000000   )
 (  0.232895   0.000000    -0.231262   0.000000     0.005036   0.000000   )
 ( -0.232895   0.000000    -0.231262   0.000000     0.005035   0.000000   )
 ( -0.232895   0.000000    -0.231262   0.000000    -0.005036   0.000000   )
 (  0.232896   0.000000    -0.231263   0.000000    -0.005036   0.000000   )
 ( -0.049871   0.000000     0.000000   0.000000     0.000000   0.000000   )
 (  0.049870   0.000000    -0.000000   0.000000     0.000000   0.000000   )
 (  0.049871   0.000000    -0.000000   0.000000     0.000000   0.000000   )
 ( -0.049870   0.000000    -0.000000   0.000000    -0.000000   0.000000   )
 ( -0.111576   0.000000    -0.000000   0.000000     0.000000   0.000000   )
 (  0.111577   0.000000    -0.000000   0.000000     0.000000   0.000000   )
 (  0.111576   0.000000    -0.000000   0.000000     0.000000   0.000000   )
 ( -0.111576   0.000000     0.000000   0.000000    -0.000000   0.000000   )
     freq (   24) =       4.651999 [THz] =     155.173979 [cm-1]
 ( -0.115504   0.000000    -0.000000   0.000000     0.000000   0.000000   )
 ( -0.115504   0.000000     0.000000   0.000000    -0.000000   0.000000   )
 (  0.115504   0.000000     0.000000   0.000000     0.000000   0.000000   )
 (  0.115504   0.000000    -0.000000   0.000000    -0.000000   0.000000   )
 (  0.000045   0.000000    -0.000001   0.000000    -0.000000   0.000000   )
 (  0.000046   0.000000     0.000000   0.000000     0.000000   0.000000   )
 ( -0.000046   0.000000     0.000001   0.000000    -0.000000   0.000000   )
 ( -0.000046   0.000000    -0.000000   0.000000    -0.000000   0.000000   )
 ( -0.014210   0.000000    -0.009298   0.000000     0.240999   0.000000   )
 ( -0.014211   0.000000     0.009297   0.000000    -0.240999   0.000000   )
 (  0.014210   0.000000    -0.009299   0.000000    -0.240999   0.000000   )
 (  0.014210   0.000000     0.009299   0.000000     0.240999   0.000000   )
 ( -0.014211   0.000000    -0.009299   0.000000     0.240999   0.000000   )
 ( -0.014210   0.000000     0.009299   0.000000    -0.240999   0.000000   )
 (  0.014210   0.000000    -0.009298   0.000000    -0.240999   0.000000   )
 (  0.014210   0.000000     0.009299   0.000000     0.240999   0.000000   )
 ( -0.283547   0.000000    -0.000000   0.000000    -0.000000   0.000000   )
 ( -0.283547   0.000000     0.000001   0.000000    -0.000000   0.000000   )
 (  0.283546   0.000000     0.000000   0.000000     0.000000   0.000000   )
 (  0.283546   0.000000    -0.000000   0.000000    -0.000000   0.000000   )
 (  0.198803   0.000000    -0.000000   0.000000    -0.000000   0.000000   )
 (  0.198803   0.000000     0.000001   0.000000    -0.000000   0.000000   )
 ( -0.198803   0.000000     0.000001   0.000000     0.000000   0.000000   )
 ( -0.198803   0.000000    -0.000001   0.000000    -0.000000   0.000000   )
     freq (   25) =       4.828024 [THz] =     161.045529 [cm-1]
 (  0.000000   0.000000    -0.071489   0.000000     0.160418   0.000000   )
 (  0.000000   0.000000     0.071489   0.000000    -0.160418   0.000000   )
 ( -0.000000   0.000000     0.071489   0.000000     0.160418   0.000000   )
 ( -0.000000   0.000000    -0.071489   0.000000    -0.160418   0.000000   )
 (  0.000000   0.000000    -0.197509   0.000000     0.006779   0.000000   )
 (  0.000000   0.000000     0.197509   0.000000    -0.006780   0.000000   )
 ( -0.000000   0.000000     0.197509   0.000000     0.006780   0.000000   )
 ( -0.000000   0.000000    -0.197509   0.000000    -0.006779   0.000000   )
 (  0.000074   0.000000     0.210457   0.000000    -0.056326   0.000000   )
 (  0.000074   0.000000    -0.210458   0.000000     0.056326   0.000000   )
 (  0.000074   0.000000    -0.210457   0.000000    -0.056324   0.000000   )
 (  0.000074   0.000000     0.210458   0.000000     0.056325   0.000000   )
 ( -0.000073   0.000000    -0.210458   0.000000     0.056324   0.000000   )
 ( -0.000074   0.000000     0.210457   0.000000    -0.056324   0.000000   )
 ( -0.000074   0.000000     0.210458   0.000000     0.056326   0.000000   )
 ( -0.000074   0.000000    -0.210457   0.000000    -0.056326   0.000000   )
 (  0.000001   0.000000    -0.126434   0.000000     0.024458   0.000000   )
 (  0.000001   0.000000     0.126434   0.000000    -0.024458   0.000000   )
 ( -0.000001   0.000000     0.126434   0.000000     0.024458   0.000000   )
 ( -0.000001   0.000000    -0.126435   0.000000    -0.024459   0.000000   )
 ( -0.000001   0.000000    -0.258628   0.000000     0.041201   0.000000   )
 ( -0.000001   0.000000     0.258628   0.000000    -0.041200   0.000000   )
 (  0.000001   0.000000     0.258628   0.000000     0.041200   0.000000   )
 (  0.000001   0.000000    -0.258629   0.000000    -0.041201   0.000000   )
     freq (   26) =       4.954423 [THz] =     165.261758 [cm-1]
 (  0.000000   0.000000    -0.061945   0.000000    -0.004164   0.000000   )
 (  0.000000   0.000000    -0.061945   0.000000    -0.004163   0.000000   )
 ( -0.000000   0.000000     0.061945   0.000000    -0.004163   0.000000   )
 ( -0.000000   0.000000     0.061945   0.000000    -0.004163   0.000000   )
 (  0.000000   0.000000    -0.211847   0.000000    -0.008511   0.000000   )
 ( -0.000000   0.000000    -0.211847   0.000000    -0.008511   0.000000   )
 (  0.000000   0.000000     0.211848   0.000000    -0.008511   0.000000   )
 ( -0.000000   0.000000     0.211848   0.000000    -0.008511   0.000000   )
 (  0.012000   0.000000    -0.238972   0.000000     0.023499   0.000000   )
 ( -0.012000   0.000000    -0.238972   0.000000     0.023499   0.000000   )
 (  0.012000   0.000000     0.238973   0.000000     0.023499   0.000000   )
 ( -0.012000   0.000000     0.238972   0.000000     0.023499   0.000000   )
 (  0.012000   0.000000    -0.238971   0.000000     0.023499   0.000000   )
 ( -0.012000   0.000000    -0.238972   0.000000     0.023500   0.000000   )
 (  0.012000   0.000000     0.238972   0.000000     0.023500   0.000000   )
 ( -0.012000   0.000000     0.238972   0.000000     0.023499   0.000000   )
 ( -0.000000   0.000000     0.194963   0.000000    -0.020796   0.000000   )
 (  0.000000   0.000000     0.194962   0.000000    -0.020796   0.000000   )
 ( -0.000000   0.000000    -0.194962   0.000000    -0.020796   0.000000   )
 ( -0.000000   0.000000    -0.194962   0.000000    -0.020796   0.000000   )
 ( -0.000000   0.000000     0.216599   0.000000    -0.015113   0.000000   )
 (  0.000000   0.000000     0.216599   0.000000    -0.015113   0.000000   )
 (  0.000000   0.000000    -0.216598   0.000000    -0.015112   0.000000   )
 (  0.000000   0.000000    -0.216598   0.000000    -0.015112   0.000000   )
     freq (   27) =       5.043294 [THz] =     168.226196 [cm-1]
 (  0.000000   0.000000     0.172769   0.000000     0.142980   0.000000   )
 ( -0.000000   0.000000     0.172769   0.000000     0.142980   0.000000   )
 ( -0.000000   0.000000     0.172770   0.000000    -0.142980   0.000000   )
 (  0.000000   0.000000     0.172770   0.000000    -0.142980   0.000000   )
 ( -0.000000   0.000000    -0.139161   0.000000    -0.075020   0.000000   )
 (  0.000000   0.000000    -0.139161   0.000000    -0.075020   0.000000   )
 (  0.000000   0.000000    -0.139160   0.000000     0.075020   0.000000   )
 ( -0.000000   0.000000    -0.139159   0.000000     0.075020   0.000000   )
 (  0.003048   0.000000    -0.174171   0.000000    -0.008639   0.000000   )
 ( -0.003048   0.000000    -0.174170   0.000000    -0.008639   0.000000   )
 ( -0.003048   0.000000    -0.174169   0.000000     0.008639   0.000000   )
 (  0.003048   0.000000    -0.174169   0.000000     0.008639   0.000000   )
 (  0.003047   0.000000    -0.174170   0.000000    -0.008639   0.000000   )
 ( -0.003047   0.000000    -0.174170   0.000000    -0.008639   0.000000   )
 ( -0.003047   0.000000    -0.174169   0.000000     0.008639   0.000000   )
 (  0.003047   0.000000    -0.174169   0.000000     0.008639   0.000000   )
 ( -0.000000   0.000000    -0.044377   0.000000     0.126378   0.000000   )
 ( -0.000000   0.000000    -0.044378   0.000000     0.126378   0.000000   )
 (  0.000000   0.000000    -0.044379   0.000000    -0.126378   0.000000   )
 (  0.000000   0.000000    -0.044378   0.000000    -0.126378   0.000000   )
 (  0.000000   0.000000    -0.253877   0.000000     0.177429   0.000000   )
 ( -0.000000   0.000000    -0.253877   0.000000     0.177429   0.000000   )
 ( -0.000000   0.000000    -0.253879   0.000000    -0.177429   0.000000   )
 ( -0.000000   0.000000    -0.253878   0.000000    -0.177429   0.000000   )
     freq (   28) =       5.463479 [THz] =     182.242057 [cm-1]
 ( -0.000000   0.000000     0.040656   0.000000    -0.054119   0.000000   )
 ( -0.000000   0.000000    -0.040656   0.000000     0.054119   0.000000   )
 (  0.000000   0.000000     0.040656   0.000000     0.054120   0.000000   )
 ( -0.000000   0.000000    -0.040656   0.000000    -0.054120   0.000000   )
 (  0.000000   0.000000     0.037344   0.000000     0.190068   0.000000   )
 ( -0.000000   0.000000    -0.037344   0.000000    -0.190068   0.000000   )
 (  0.000000   0.000000     0.037344   0.000000    -0.190068   0.000000   )
 ( -0.000000   0.000000    -0.037343   0.000000     0.190068   0.000000   )
 ( -0.004276   0.000000    -0.023567   0.000000    -0.272868   0.000000   )
 ( -0.004276   0.000000     0.023567   0.000000     0.272868   0.000000   )
 (  0.004276   0.000000    -0.023567   0.000000     0.272868   0.000000   )
 (  0.004276   0.000000     0.023567   0.000000    -0.272867   0.000000   )
 (  0.004276   0.000000     0.023567   0.000000     0.272868   0.000000   )
 (  0.004276   0.000000    -0.023567   0.000000    -0.272868   0.000000   )
 ( -0.004276   0.000000     0.023567   0.000000    -0.272868   0.000000   )
 ( -0.004276   0.000000    -0.023567   0.000000     0.272868   0.000000   )
 ( -0.000000   0.000000    -0.173491   0.000000     0.122192   0.000000   )
 ( -0.000000   0.000000     0.173490   0.000000    -0.122192   0.000000   )
 ( -0.000000   0.000000    -0.173490   0.000000    -0.122192   0.000000   )
 ( -0.000000   0.000000     0.173490   0.000000     0.122192   0.000000   )
 (  0.000000   0.000000     0.077372   0.000000     0.082587   0.000000   )
 (  0.000000   0.000000    -0.077371   0.000000    -0.082587   0.000000   )
 (  0.000000   0.000000     0.077371   0.000000    -0.082587   0.000000   )
 (  0.000000   0.000000    -0.077371   0.000000     0.082587   0.000000   )
     freq (   29) =       5.576327 [THz] =     186.006243 [cm-1]
 ( -0.020206   0.000000    -0.000000   0.000000    -0.000001   0.000000   )
 (  0.020206   0.000000    -0.000000   0.000000     0.000000   0.000000   )
 ( -0.020206   0.000000     0.000000   0.000000    -0.000000   0.000000   )
 (  0.020206   0.000000     0.000000   0.000000    -0.000000   0.000000   )
 ( -0.213010   0.000000    -0.000000   0.000000     0.000000   0.000000   )
 (  0.213009   0.000000     0.000000   0.000000     0.000000   0.000000   )
 ( -0.213010   0.000000     0.000000   0.000000     0.000000   0.000000   )
 (  0.213010   0.000000    -0.000000   0.000000     0.000000   0.000000   )
 (  0.163805   0.000000     0.085276   0.000000    -0.016580   0.000000   )
 ( -0.163805   0.000000     0.085276   0.000000    -0.016580   0.000000   )
 (  0.163805   0.000000    -0.085276   0.000000    -0.016580   0.000000   )
 ( -0.163805   0.000000    -0.085276   0.000000    -0.016580   0.000000   )
 ( -0.163805   0.000000    -0.085276   0.000000     0.016581   0.000000   )
 (  0.163805   0.000000    -0.085276   0.000000     0.016581   0.000000   )
 ( -0.163805   0.000000     0.085276   0.000000     0.016581   0.000000   )
 (  0.163805   0.000000     0.085276   0.000000     0.016580   0.000000   )
 (  0.194264   0.000000    -0.000000   0.000000     0.000000   0.000000   )
 ( -0.194263   0.000000     0.000000   0.000000     0.000000   0.000000   )
 (  0.194263   0.000000     0.000000   0.000000     0.000000   0.000000   )
 ( -0.194263   0.000000     0.000000   0.000000     0.000000   0.000000   )
 (  0.312606   0.000000    -0.000000   0.000000     0.000000   0.000000   )
 ( -0.312606   0.000000     0.000000   0.000000    -0.000000   0.000000   )
 (  0.312606   0.000000     0.000000   0.000000     0.000000   0.000000   )
 ( -0.312606   0.000000    -0.000001   0.000000     0.000000   0.000000   )
     freq (   30) =       5.614104 [THz] =     187.266341 [cm-1]
 ( -0.000000   0.000000     0.106209   0.000000     0.291280   0.000000   )
 (  0.000000   0.000000    -0.106209   0.000000    -0.291280   0.000000   )
 ( -0.000000   0.000000    -0.106209   0.000000     0.291280   0.000000   )
 (  0.000000   0.000000     0.106209   0.000000    -0.291280   0.000000   )
 ( -0.000000   0.000000     0.168328   0.000000    -0.026295   0.000000   )
 (  0.000000   0.000000    -0.168328   0.000000     0.026296   0.000000   )
 ( -0.000001   0.000000    -0.168328   0.000000    -0.026296   0.000000   )
 (  0.000000   0.000000     0.168328   0.000000     0.026294   0.000000   )
 ( -0.018601   0.000000    -0.158743   0.000000     0.055029   0.000000   )
 ( -0.018602   0.000000     0.158743   0.000000    -0.055028   0.000000   )
 ( -0.018601   0.000000     0.158743   0.000000     0.055027   0.000000   )
 ( -0.018602   0.000000    -0.158743   0.000000    -0.055029   0.000000   )
 (  0.018601   0.000000     0.158743   0.000000    -0.055028   0.000000   )
 (  0.018602   0.000000    -0.158743   0.000000     0.055029   0.000000   )
 (  0.018601   0.000000    -0.158743   0.000000    -0.055029   0.000000   )
 (  0.018602   0.000000     0.158743   0.000000     0.055027   0.000000   )
 (  0.000000   0.000000     0.075555   0.000000    -0.001087   0.000000   )
 ( -0.000000   0.000000    -0.075553   0.000000     0.001087   0.000000   )
 (  0.000000   0.000000    -0.075553   0.000000    -0.001086   0.000000   )
 ( -0.000000   0.000000     0.075554   0.000000     0.001087   0.000000   )
 (  0.000001   0.000000     0.239469   0.000000    -0.068174   0.000000   )
 ( -0.000001   0.000000    -0.239470   0.000000     0.068173   0.000000   )
 (  0.000001   0.000000    -0.239470   0.000000    -0.068173   0.000000   )
 ( -0.000001   0.000000     0.239469   0.000000     0.068173   0.000000   )
     freq (   31) =       5.735078 [THz] =     191.301596 [cm-1]
 ( -0.000000   0.000000     0.083497   0.000000     0.169634   0.000000   )
 (  0.000000   0.000000     0.083497   0.000000     0.169634   0.000000   )
 ( -0.000000   0.000000    -0.083497   0.000000     0.169634   0.000000   )
 (  0.000000   0.000000    -0.083497   0.000000     0.169634   0.000000   )
 ( -0.000000   0.000000    -0.036037   0.000000    -0.152405   0.000000   )
 (  0.000000   0.000000    -0.036037   0.000000    -0.152406   0.000000   )
 ( -0.000000   0.000000     0.036037   0.000000    -0.152407   0.000000   )
 (  0.000000   0.000000     0.036037   0.000000    -0.152407   0.000000   )
 ( -0.000301   0.000000    -0.022262   0.000000    -0.262494   0.000000   )
 (  0.000301   0.000000    -0.022262   0.000000    -0.262494   0.000000   )
 ( -0.000301   0.000000     0.022262   0.000000    -0.262496   0.000000   )
 (  0.000301   0.000000     0.022262   0.000000    -0.262496   0.000000   )
 ( -0.000302   0.000000    -0.022263   0.000000    -0.262494   0.000000   )
 (  0.000302   0.000000    -0.022263   0.000000    -0.262494   0.000000   )
 ( -0.000302   0.000000     0.022262   0.000000    -0.262496   0.000000   )
 (  0.000302   0.000000     0.022262   0.000000    -0.262496   0.000000   )
 (  0.000001   0.000000     0.177559   0.000000    -0.083263   0.000000   )
 ( -0.000000   0.000000     0.177559   0.000000    -0.083263   0.000000   )
 (  0.000000   0.000000    -0.177558   0.000000    -0.083262   0.000000   )
 ( -0.000000   0.000000    -0.177558   0.000000    -0.083262   0.000000   )
 (  0.000000   0.000000    -0.097717   0.000000    -0.054032   0.000000   )
 ( -0.000001   0.000000    -0.097717   0.000000    -0.054032   0.000000   )
 (  0.000001   0.000000     0.097716   0.000000    -0.054031   0.000000   )
 ( -0.000001   0.000000     0.097716   0.000000    -0.054031   0.000000   )
     freq (   32) =       5.792220 [THz] =     193.207649 [cm-1]
 (  0.000000   0.000000    -0.014730   0.000000    -0.003698   0.000000   )
 (  0.000000   0.000000    -0.014730   0.000000    -0.003698   0.000000   )
 (  0.000000   0.000000    -0.014730   0.000000     0.003699   0.000000   )
 (  0.000000   0.000000    -0.014730   0.000000     0.003698   0.000000   )
 ( -0.000000   0.000000     0.015475   0.000000    -0.202906   0.000000   )
 (  0.000000   0.000000     0.015474   0.000000    -0.202905   0.000000   )
 ( -0.000000   0.000000     0.015474   0.000000     0.202905   0.000000   )
 ( -0.000000   0.000000     0.015475   0.000000     0.202905   0.000000   )
 ( -0.015307   0.000000     0.050154   0.000000    -0.267239   0.000000   )
 (  0.015307   0.000000     0.050154   0.000000    -0.267241   0.000000   )
 (  0.015307   0.000000     0.050154   0.000000     0.267240   0.000000   )
 ( -0.015307   0.000000     0.050154   0.000000     0.267238   0.000000   )
 ( -0.015308   0.000000     0.050154   0.000000    -0.267240   0.000000   )
 (  0.015307   0.000000     0.050154   0.000000    -0.267241   0.000000   )
 (  0.015307   0.000000     0.050154   0.000000     0.267240   0.000000   )
 ( -0.015308   0.000000     0.050155   0.000000     0.267239   0.000000   )
 (  0.000000   0.000000    -0.159788   0.000000     0.099042   0.000000   )
 (  0.000001   0.000000    -0.159788   0.000000     0.099042   0.000000   )
 (  0.000001   0.000000    -0.159789   0.000000    -0.099042   0.000000   )
 (  0.000000   0.000000    -0.159789   0.000000    -0.099042   0.000000   )
 ( -0.000000   0.000000     0.127369   0.000000     0.091984   0.000000   )
 ( -0.000001   0.000000     0.127368   0.000000     0.091984   0.000000   )
 ( -0.000001   0.000000     0.127369   0.000000    -0.091984   0.000000   )
 ( -0.000001   0.000000     0.127370   0.000000    -0.091984   0.000000   )
     freq (   33) =       5.819670 [THz] =     194.123280 [cm-1]
 ( -0.045952   0.000000    -0.000000   0.000000     0.000000   0.000000   )
 ( -0.045952   0.000000     0.000000   0.000000     0.000000   0.000000   )
 ( -0.045952   0.000000    -0.000000   0.000000     0.000000   0.000000   )
 ( -0.045952   0.000000    -0.000000   0.000000     0.000000   0.000000   )
 (  0.038845   0.000000    -0.000000   0.000000    -0.000001   0.000000   )
 (  0.038845   0.000000     0.000000   0.000000    -0.000000   0.000000   )
 (  0.038845   0.000000    -0.000000   0.000000     0.000000   0.000000   )
 (  0.038845   0.000000     0.000000   0.000000     0.000001   0.000000   )
 (  0.093530   0.000000    -0.030053   0.000000    -0.239418   0.000000   )
 (  0.093530   0.000000     0.030053   0.000000     0.239417   0.000000   )
 (  0.093530   0.000000     0.030053   0.000000    -0.239417   0.000000   )
 (  0.093530   0.000000    -0.030053   0.000000     0.239418   0.000000   )
 (  0.093530   0.000000    -0.030053   0.000000    -0.239419   0.000000   )
 (  0.093530   0.000000     0.030053   0.000000     0.239417   0.000000   )
 (  0.093530   0.000000     0.030053   0.000000    -0.239417   0.000000   )
 (  0.093530   0.000000    -0.030053   0.000000     0.239418   0.000000   )
 ( -0.248324   0.000000    -0.000000   0.000000     0.000000   0.000000   )
 ( -0.248324   0.000000    -0.000000   0.000000     0.000000   0.000000   )
 ( -0.248324   0.000000    -0.000000   0.000000     0.000000   0.000000   )
 ( -0.248324   0.000000    -0.000001   0.000000    -0.000001   0.000000   )
 (  0.225324   0.000000     0.000000   0.000000     0.000000   0.000000   )
 (  0.225324   0.000000     0.000000   0.000000     0.000000   0.000000   )
 (  0.225324   0.000000     0.000000   0.000000    -0.000000   0.000000   )
 (  0.225324   0.000000     0.000000   0.000000    -0.000000   0.000000   )
     freq (   34) =       6.112357 [THz] =     203.886270 [cm-1]
 (  0.000000   0.000000    -0.048593   0.000000    -0.000532   0.000000   )
 (  0.000000   0.000000     0.048593   0.000000     0.000532   0.000000   )
 (  0.000000   0.000000     0.048593   0.000000    -0.000532   0.000000   )
 (  0.000000   0.000000    -0.048593   0.000000     0.000532   0.000000   )
 ( -0.000000   0.000000     0.000669   0.000000    -0.230146   0.000000   )
 (  0.000000   0.000000    -0.000669   0.000000     0.230146   0.000000   )
 ( -0.000000   0.000000    -0.000669   0.000000    -0.230146   0.000000   )
 ( -0.000000   0.000000     0.000669   0.000000     0.230146   0.000000   )
 (  0.000619   0.000000     0.012989   0.000000     0.236009   0.000000   )
 (  0.000619   0.000000    -0.012989   0.000000    -0.236009   0.000000   )
 (  0.000619   0.000000    -0.012989   0.000000     0.236009   0.000000   )
 (  0.000619   0.000000     0.012989   0.000000    -0.236010   0.000000   )
 ( -0.000619   0.000000    -0.012989   0.000000    -0.236009   0.000000   )
 ( -0.000619   0.000000     0.012989   0.000000     0.236009   0.000000   )
 ( -0.000619   0.000000     0.012989   0.000000    -0.236009   0.000000   )
 ( -0.000619   0.000000    -0.012989   0.000000     0.236009   0.000000   )
 (  0.000000   0.000000    -0.045967   0.000000     0.202046   0.000000   )
 (  0.000000   0.000000     0.045967   0.000000    -0.202046   0.000000   )
 (  0.000000   0.000000     0.045967   0.000000     0.202046   0.000000   )
 (  0.000000   0.000000    -0.045967   0.000000    -0.202046   0.000000   )
 ( -0.000000   0.000000     0.049431   0.000000     0.193786   0.000000   )
 ( -0.000000   0.000000    -0.049431   0.000000    -0.193786   0.000000   )
 ( -0.000000   0.000000    -0.049431   0.000000     0.193786   0.000000   )
 ( -0.000000   0.000000     0.049431   0.000000    -0.193786   0.000000   )
     freq (   35) =       6.666948 [THz] =     222.385440 [cm-1]
 ( -0.000000   0.000000    -0.036846   0.000000     0.045100   0.000000   )
 ( -0.000000   0.000000     0.036846   0.000000    -0.045100   0.000000   )
 ( -0.000000   0.000000    -0.036846   0.000000    -0.045100   0.000000   )
 ( -0.000000   0.000000     0.036846   0.000000     0.045100   0.000000   )
 (  0.000000   0.000000     0.227426   0.000000    -0.004104   0.000000   )
 (  0.000000   0.000000    -0.227426   0.000000     0.004104   0.000000   )
 ( -0.000000   0.000000     0.227426   0.000000     0.004104   0.000000   )
 (  0.000000   0.000000    -0.227426   0.000000    -0.004104   0.000000   )
 ( -0.007488   0.000000    -0.225083   0.000000     0.025980   0.000000   )
 ( -0.007488   0.000000     0.225083   0.000000    -0.025980   0.000000   )
 (  0.007488   0.000000    -0.225083   0.000000    -0.025980   0.000000   )
 (  0.007488   0.000000     0.225083   0.000000     0.025980   0.000000   )
 (  0.007488   0.000000     0.225083   0.000000    -0.025980   0.000000   )
 (  0.007488   0.000000    -0.225083   0.000000     0.025980   0.000000   )
 ( -0.007488   0.000000     0.225083   0.000000     0.025980   0.000000   )
 ( -0.007488   0.000000    -0.225083   0.000000    -0.025980   0.000000   )
 ( -0.000000   0.000000    -0.137273   0.000000     0.035542   0.000000   )
 ( -0.000000   0.000000     0.137273   0.000000    -0.035542   0.000000   )
 ( -0.000000   0.000000    -0.137273   0.000000    -0.035542   0.000000   )
 (  0.000000   0.000000     0.137273   0.000000     0.035542   0.000000   )
 (  0.000000   0.000000    -0.267047   0.000000     0.025718   0.000000   )
 ( -0.000000   0.000000     0.267047   0.000000    -0.025717   0.000000   )
 (  0.000000   0.000000    -0.267047   0.000000    -0.025717   0.000000   )
 (  0.000000   0.000000     0.267047   0.000000     0.025717   0.000000   )
     freq (   36) =       7.045520 [THz] =     235.013261 [cm-1]
 (  0.011934   0.000000     0.000000   0.000000     0.000000   0.000000   )
 ( -0.011934   0.000000     0.000000   0.000000    -0.000000   0.000000   )
 ( -0.011935   0.000000    -0.000000   0.000000     0.000000   0.000000   )
 (  0.011934   0.000000    -0.000000   0.000000     0.000000   0.000000   )
 ( -0.204031   0.000000     0.000000   0.000000     0.000000   0.000000   )
 (  0.204031   0.000000    -0.000000   0.000000     0.000000   0.000000   )
 (  0.204031   0.000000     0.000000   0.000000    -0.000000   0.000000   )
 ( -0.204031   0.000000    -0.000000   0.000000    -0.000000   0.000000   )
 (  0.134015   0.000000     0.100196   0.000000     0.003865   0.000000   )
 ( -0.134015   0.000000     0.100196   0.000000     0.003865   0.000000   )
 ( -0.134015   0.000000     0.100196   0.000000    -0.003865   0.000000   )
 (  0.134015   0.000000     0.100196   0.000000    -0.003865   0.000000   )
 ( -0.134015   0.000000    -0.100196   0.000000    -0.003864   0.000000   )
 (  0.134015   0.000000    -0.100196   0.000000    -0.003864   0.000000   )
 (  0.134015   0.000000    -0.100196   0.000000     0.003865   0.000000   )
 ( -0.134015   0.000000    -0.100196   0.000000     0.003864   0.000000   )
 ( -0.273982   0.000000    -0.000000   0.000000    -0.000000   0.000000   )
 (  0.273982   0.000000     0.000000   0.000000    -0.000000   0.000000   )
 (  0.273982   0.000000     0.000000   0.000000     0.000000   0.000000   )
 ( -0.273982   0.000000     0.000000   0.000000     0.000000   0.000000   )
 ( -0.277731   0.000000    -0.000000   0.000000    -0.000000   0.000000   )
 (  0.277731   0.000000    -0.000000   0.000000    -0.000000   0.000000   )
 (  0.277731   0.000000    -0.000000   0.000000     0.000000   0.000000   )
 ( -0.277731   0.000000     0.000000   0.000000     0.000000   0.000000   )
     freq (   37) =      12.725730 [THz] =     424.484668 [cm-1]
 (  0.000000   0.000000     0.002015   0.000000    -0.004372   0.000000   )
 (  0.000000   0.000000    -0.002015   0.000000     0.004372   0.000000   )
 (  0.000000   0.000000     0.002015   0.000000     0.004372   0.000000   )
 (  0.000000   0.000000    -0.002015   0.000000    -0.004372   0.000000   )
 ( -0.000000   0.000000     0.012057   0.000000    -0.011135   0.000000   )
 ( -0.000000   0.000000    -0.012057   0.000000     0.011135   0.000000   )
 ( -0.000000   0.000000     0.012057   0.000000     0.011135   0.000000   )
 ( -0.000000   0.000000    -0.012057   0.000000    -0.011135   0.000000   )
 (  0.130497   0.000000    -0.186487   0.000000    -0.039126   0.000000   )
 (  0.130497   0.000000     0.186487   0.000000     0.039126   0.000000   )
 ( -0.130497   0.000000    -0.186487   0.000000     0.039126   0.000000   )
 ( -0.130497   0.000000     0.186487   0.000000    -0.039126   0.000000   )
 ( -0.130497   0.000000     0.186487   0.000000     0.039126   0.000000   )
 ( -0.130497   0.000000    -0.186487   0.000000    -0.039126   0.000000   )
 (  0.130497   0.000000     0.186487   0.000000    -0.039126   0.000000   )
 (  0.130497   0.000000    -0.186487   0.000000     0.039126   0.000000   )
 (  0.000000   0.000000     0.226399   0.000000     0.112252   0.000000   )
 ( -0.000000   0.000000    -0.226399   0.000000    -0.112252   0.000000   )
 (  0.000000   0.000000     0.226399   0.000000    -0.112252   0.000000   )
 (  0.000000   0.000000    -0.226399   0.000000     0.112252   0.000000   )
 (  0.000000   0.000000     0.193691   0.000000    -0.204105   0.000000   )
 (  0.000000   0.000000    -0.193691   0.000000     0.204105   0.000000   )
 (  0.000000   0.000000     0.193691   0.000000     0.204105   0.000000   )
 (  0.000000   0.000000    -0.193691   0.000000    -0.204105   0.000000   )
     freq (   38) =      12.745607 [THz] =     425.147702 [cm-1]
 ( -0.000000   0.000000    -0.005487   0.000000     0.008233   0.000000   )
 ( -0.000000   0.000000     0.005487   0.000000    -0.008233   0.000000   )
 (  0.000000   0.000000     0.005487   0.000000     0.008233   0.000000   )
 ( -0.000000   0.000000    -0.005487   0.000000    -0.008233   0.000000   )
 ( -0.000000   0.000000     0.034451   0.000000    -0.014893   0.000000   )
 ( -0.000000   0.000000    -0.034451   0.000000     0.014893   0.000000   )
 (  0.000000   0.000000    -0.034451   0.000000    -0.014893   0.000000   )
 (  0.000000   0.000000     0.034451   0.000000     0.014893   0.000000   )
 (  0.122664   0.000000    -0.193258   0.000000    -0.048334   0.000000   )
 (  0.122664   0.000000     0.193258   0.000000     0.048334   0.000000   )
 (  0.122664   0.000000     0.193258   0.000000    -0.048334   0.000000   )
 (  0.122664   0.000000    -0.193258   0.000000     0.048334   0.000000   )
 ( -0.122664   0.000000     0.193257   0.000000     0.048334   0.000000   )
 ( -0.122664   0.000000    -0.193257   0.000000    -0.048334   0.000000   )
 ( -0.122664   0.000000    -0.193258   0.000000     0.048334   0.000000   )
 ( -0.122664   0.000000     0.193258   0.000000    -0.048334   0.000000   )
 ( -0.000000   0.000000    -0.224364   0.000000    -0.113223   0.000000   )
 (  0.000000   0.000000     0.224364   0.000000     0.113223   0.000000   )
 (  0.000000   0.000000     0.224364   0.000000    -0.113223   0.000000   )
 (  0.000000   0.000000    -0.224364   0.000000     0.113223   0.000000   )
 ( -0.000000   0.000000    -0.178196   0.000000     0.210045   0.000000   )
 ( -0.000000   0.000000     0.178196   0.000000    -0.210045   0.000000   )
 (  0.000000   0.000000     0.178195   0.000000     0.210045   0.000000   )
 (  0.000000   0.000000    -0.178196   0.000000    -0.210045   0.000000   )
     freq (   39) =      13.012455 [THz] =     434.048787 [cm-1]
 ( -0.002711   0.000000     0.000000   0.000000     0.000000   0.000000   )
 (  0.002711   0.000000     0.000000   0.000000    -0.000000   0.000000   )
 (  0.002711   0.000000    -0.000000   0.000000     0.000000   0.000000   )
 ( -0.002711   0.000000    -0.000000   0.000000    -0.000000   0.000000   )
 ( -0.001561   0.000000    -0.000000   0.000000    -0.000000   0.000000   )
 (  0.001561   0.000000    -0.000000   0.000000    -0.000000   0.000000   )
 (  0.001561   0.000000    -0.000000   0.000000    -0.000000   0.000000   )
 ( -0.001561   0.000000    -0.000000   0.000000    -0.000000   0.000000   )
 ( -0.002479   0.000000    -0.031581   0.000000     0.277071   0.000000   )
 (  0.002479   0.000000    -0.031581   0.000000     0.277071   0.000000   )
 (  0.002479   0.000000    -0.031581   0.000000    -0.277071   0.000000   )
 ( -0.002479   0.000000    -0.031581   0.000000    -0.277071   0.000000   )
 (  0.002479   0.000000     0.031580   0.000000    -0.277071   0.000000   )
 ( -0.002479   0.000000     0.031580   0.000000    -0.277071   0.000000   )
 ( -0.002479   0.000000     0.031580   0.000000     0.277071   0.000000   )
 (  0.002479   0.000000     0.031580   0.000000     0.277071   0.000000   )
 (  0.210731   0.000000     0.000000   0.000000     0.000000   0.000000   )
 ( -0.210731   0.000000     0.000000   0.000000     0.000000   0.000000   )
 ( -0.210731   0.000000     0.000000   0.000000    -0.000000   0.000000   )
 (  0.210731   0.000000     0.000000   0.000000    -0.000000   0.000000   )
 ( -0.223694   0.000000     0.000000   0.000000    -0.000000   0.000000   )
 (  0.223694   0.000000     0.000000   0.000000    -0.000000   0.000000   )
 (  0.223694   0.000000     0.000000   0.000000     0.000000   0.000000   )
 ( -0.223694   0.000000     0.000000   0.000000     0.000000   0.000000   )
     freq (   40) =      13.074866 [THz] =     436.130572 [cm-1]
 (  0.000000   0.000000     0.000159   0.000000     0.002350   0.000000   )
 ( -0.000000   0.000000     0.000159   0.000000     0.002350   0.000000   )
 ( -0.000000   0.000000     0.000159   0.000000    -0.002350   0.000000   )
 (  0.000000   0.000000     0.000159   0.000000    -0.002350   0.000000   )
 (  0.000000   0.000000    -0.018678   0.000000    -0.025539   0.000000   )
 ( -0.000000   0.000000    -0.018678   0.000000    -0.025539   0.000000   )
 (  0.000000   0.000000    -0.018678   0.000000     0.025539   0.000000   )
 ( -0.000000   0.000000    -0.018678   0.000000     0.025539   0.000000   )
 (  0.114345   0.000000    -0.187209   0.000000    -0.045361   0.000000   )
 ( -0.114345   0.000000    -0.187209   0.000000    -0.045361   0.000000   )
 ( -0.114345   0.000000    -0.187209   0.000000     0.045362   0.000000   )
 (  0.114345   0.000000    -0.187209   0.000000     0.045362   0.000000   )
 (  0.114345   0.000000    -0.187209   0.000000    -0.045361   0.000000   )
 ( -0.114345   0.000000    -0.187209   0.000000    -0.045361   0.000000   )
 ( -0.114345   0.000000    -0.187209   0.000000     0.045361   0.000000   )
 (  0.114345   0.000000    -0.187209   0.000000     0.045361   0.000000   )
 ( -0.000000   0.000000     0.215314   0.000000     0.147647   0.000000   )
 (  0.000000   0.000000     0.215314   0.000000     0.147647   0.000000   )
 (  0.000000   0.000000     0.215314   0.000000    -0.147647   0.000000   )
 ( -0.000000   0.000000     0.215314   0.000000    -0.147647   0.000000   )
 (  0.000000   0.000000     0.204988   0.000000    -0.196098   0.000000   )
 ( -0.000000   0.000000     0.204988   0.000000    -0.196098   0.000000   )
 (  0.000000   0.000000     0.204988   0.000000     0.196098   0.000000   )
 ( -0.000000   0.000000     0.204988   0.000000     0.196098   0.000000   )
     freq (   41) =      13.198692 [THz] =     440.260983 [cm-1]
 ( -0.001149   0.000000     0.000000   0.000000    -0.000000   0.000000   )
 (  0.001149   0.000000    -0.000000   0.000000     0.000000   0.000000   )
 ( -0.001149   0.000000    -0.000000   0.000000    -0.000000   0.000000   )
 (  0.001149   0.000000    -0.000000   0.000000     0.000000   0.000000   )
 ( -0.012549   0.000000    -0.000000   0.000000    -0.000000   0.000000   )
 (  0.012549   0.000000    -0.000000   0.000000    -0.000000   0.000000   )
 ( -0.012549   0.000000    -0.000000   0.000000     0.000000   0.000000   )
 (  0.012549   0.000000    -0.000000   0.000000     0.000000   0.000000   )
 (  0.007261   0.000000     0.042706   0.000000    -0.272950   0.000000   )
 ( -0.007261   0.000000     0.042706   0.000000    -0.272950   0.000000   )
 (  0.007261   0.000000    -0.042706   0.000000    -0.272950   0.000000   )
 ( -0.007261   0.000000    -0.042706   0.000000    -0.272950   0.000000   )
 ( -0.007261   0.000000    -0.042706   0.000000     0.272950   0.000000   )
 (  0.007261   0.000000    -0.042706   0.000000     0.272950   0.000000   )
 ( -0.007261   0.000000     0.042706   0.000000     0.272950   0.000000   )
 (  0.007261   0.000000     0.042706   0.000000     0.272950   0.000000   )
 (  0.223987   0.000000     0.000000   0.000000     0.000000   0.000000   )
 ( -0.223987   0.000000     0.000000   0.000000     0.000000   0.000000   )
 (  0.223987   0.000000     0.000000   0.000000    -0.000000   0.000000   )
 ( -0.223987   0.000000     0.000000   0.000000    -0.000000   0.000000   )
 ( -0.216598   0.000000     0.000000   0.000000    -0.000000   0.000000   )
 (  0.216598   0.000000     0.000000   0.000000    -0.000000   0.000000   )
 ( -0.216598   0.000000     0.000000   0.000000     0.000000   0.000000   )
 (  0.216598   0.000000     0.000000   0.000000     0.000000   0.000000   )
     freq (   42) =      13.342996 [THz] =     445.074441 [cm-1]
 (  0.001270   0.000000     0.000000   0.000000     0.000000   0.000000   )
 (  0.001270   0.000000     0.000000   0.000000    -0.000000   0.000000   )
 (  0.001270   0.000000    -0.000000   0.000000     0.000000   0.000000   )
 (  0.001270   0.000000     0.000000   0.000000     0.000000   0.000000   )
 (  0.004221   0.000000     0.000000   0.000000     0.000000   0.000000   )
 (  0.004221   0.000000    -0.000000   0.000000    -0.000000   0.000000   )
 (  0.004221   0.000000    -0.000000   0.000000    -0.000000   0.000000   )
 (  0.004221   0.000000     0.000000   0.000000     0.000000   0.000000   )
 ( -0.002291   0.000000    -0.026597   0.000000     0.249236   0.000000   )
 ( -0.002291   0.000000     0.026597   0.000000    -0.249236   0.000000   )
 ( -0.002291   0.000000     0.026598   0.000000     0.249236   0.000000   )
 ( -0.002291   0.000000    -0.026598   0.000000    -0.249236   0.000000   )
 ( -0.002291   0.000000    -0.026597   0.000000     0.249236   0.000000   )
 ( -0.002291   0.000000     0.026597   0.000000    -0.249236   0.000000   )
 ( -0.002291   0.000000     0.026597   0.000000     0.249236   0.000000   )
 ( -0.002291   0.000000    -0.026597   0.000000    -0.249236   0.000000   )
 ( -0.253195   0.000000    -0.000000   0.000000    -0.000000   0.000000   )
 ( -0.253195   0.000000     0.000000   0.000000     0.000000   0.000000   )
 ( -0.253195   0.000000    -0.000000   0.000000     0.000000   0.000000   )
 ( -0.253195   0.000000    -0.000000   0.000000     0.000000   0.000000   )
 (  0.245378   0.000000    -0.000000   0.000000     0.000000   0.000000   )
 (  0.245378   0.000000     0.000000   0.000000    -0.000000   0.000000   )
 (  0.245378   0.000000    -0.000000   0.000000    -0.000000   0.000000   )
 (  0.245378   0.000000    -0.000000   0.000000    -0.000000   0.000000   )
     freq (   43) =      13.698304 [THz] =     456.926254 [cm-1]
 (  0.000000   0.000000     0.001602   0.000000     0.003092   0.000000   )
 ( -0.000000   0.000000     0.001602   0.000000     0.003092   0.000000   )
 ( -0.000000   0.000000    -0.001602   0.000000     0.003092   0.000000   )
 (  0.000000   0.000000    -0.001602   0.000000     0.003092   0.000000   )
 ( -0.000000   0.000000     0.004163   0.000000    -0.004873   0.000000   )
[...]
 ( -0.248275   0.000000    -0.166485   0.000000     0.027215   0.000000   )
 (  0.248247   0.000000     0.166466   0.000000     0.027212   0.000000   )
 (  0.248247   0.000000    -0.166466   0.000000    -0.027212   0.000000   )
 ( -0.248275   0.000000     0.166485   0.000000    -0.027215   0.000000   )
 ( -0.248275   0.000000    -0.166485   0.000000     0.027215   0.000000   )
 ( -0.005711   0.000000     0.000000   0.000000    -0.000000   0.000000   )
 ( -0.005711   0.000000    -0.000000   0.000000     0.000000   0.000000   )
 (  0.005710   0.000000    -0.000000   0.000000    -0.000000   0.000000   )
 (  0.005710   0.000000     0.000000   0.000000     0.000000   0.000000   )
 ( -0.015725   0.000000     0.000000   0.000000     0.000000   0.000000   )
 ( -0.015725   0.000000    -0.000000   0.000000    -0.000000   0.000000   )
 (  0.015725   0.000000    -0.000000   0.000000     0.000000   0.000000   )
 (  0.015725   0.000000     0.000000   0.000000    -0.000000   0.000000   )
     freq (   63) =      33.412841 [THz] =    1114.532398 [cm-1]
 ( -0.007513   0.000000     0.000000   0.000000     0.000000   0.000000   )
 (  0.007513   0.000000    -0.000000   0.000000     0.000000   0.000000   )
 (  0.007513   0.000000     0.000000   0.000000    -0.000000   0.000000   )
 ( -0.007513   0.000000     0.000000   0.000000    -0.000000   0.000000   )
 (  0.266098   0.000000    -0.000000   0.000000    -0.000000   0.000000   )
 ( -0.266098   0.000000    -0.000000   0.000000    -0.000000   0.000000   )
 ( -0.266096   0.000000    -0.000000   0.000000    -0.000000   0.000000   )
 (  0.266096   0.000000    -0.000000   0.000000    -0.000000   0.000000   )
 (  0.243537   0.000000     0.171701   0.000000     0.022000   0.000000   )
 ( -0.243537   0.000000     0.171701   0.000000     0.022000   0.000000   )
 ( -0.243536   0.000000     0.171701   0.000000    -0.022000   0.000000   )
 (  0.243536   0.000000     0.171701   0.000000    -0.022000   0.000000   )
 ( -0.243537   0.000000    -0.171701   0.000000    -0.022000   0.000000   )
 (  0.243537   0.000000    -0.171701   0.000000    -0.022000   0.000000   )
 (  0.243536   0.000000    -0.171701   0.000000     0.022000   0.000000   )
 ( -0.243536   0.000000    -0.171701   0.000000     0.022000   0.000000   )
 ( -0.016263   0.000000     0.000000   0.000000    -0.000000   0.000000   )
 (  0.016263   0.000000     0.000000   0.000000    -0.000000   0.000000   )
 (  0.016263   0.000000     0.000000   0.000000     0.000000   0.000000   )
 ( -0.016263   0.000000     0.000000   0.000000     0.000000   0.000000   )
 ( -0.017921   0.000000     0.000000   0.000000     0.000000   0.000000   )
 (  0.017921   0.000000     0.000000   0.000000     0.000000   0.000000   )
 (  0.017921   0.000000    -0.000000   0.000000     0.000000   0.000000   )
 ( -0.017921   0.000000     0.000000   0.000000    -0.000000   0.000000   )
     freq (   64) =      33.516182 [THz] =    1117.979484 [cm-1]
 (  0.001237   0.000000    -0.000000   0.000000     0.000000   0.000000   )
 ( -0.001237   0.000000     0.000000   0.000000     0.000000   0.000000   )
 (  0.001237   0.000000     0.000000   0.000000    -0.000000   0.000000   )
 ( -0.001237   0.000000     0.000000   0.000000    -0.000000   0.000000   )
 (  0.265565   0.000000     0.000000   0.000000    -0.000000   0.000000   )
 ( -0.265565   0.000000     0.000000   0.000000    -0.000000   0.000000   )
 (  0.265567   0.000000     0.000000   0.000000     0.000000   0.000000   )
 ( -0.265567   0.000000     0.000000   0.000000     0.000000   0.000000   )
 (  0.244259   0.000000     0.171579   0.000000     0.022903   0.000000   )
 ( -0.244259   0.000000     0.171579   0.000000     0.022903   0.000000   )
 (  0.244260   0.000000    -0.171580   0.000000     0.022903   0.000000   )
 ( -0.244260   0.000000    -0.171580   0.000000     0.022903   0.000000   )
 ( -0.244259   0.000000    -0.171579   0.000000    -0.022903   0.000000   )
 (  0.244259   0.000000    -0.171579   0.000000    -0.022903   0.000000   )
 ( -0.244260   0.000000     0.171580   0.000000    -0.022903   0.000000   )
 (  0.244260   0.000000     0.171580   0.000000    -0.022903   0.000000   )
 (  0.012350   0.000000    -0.000000   0.000000     0.000000   0.000000   )
 ( -0.012350   0.000000    -0.000000   0.000000     0.000000   0.000000   )
 (  0.012350   0.000000    -0.000000   0.000000    -0.000000   0.000000   )
 ( -0.012350   0.000000    -0.000000   0.000000    -0.000000   0.000000   )
 (  0.008214   0.000000    -0.000000   0.000000    -0.000000   0.000000   )
 ( -0.008214   0.000000    -0.000000   0.000000    -0.000000   0.000000   )
 (  0.008214   0.000000    -0.000000   0.000000     0.000000   0.000000   )
 ( -0.008214   0.000000    -0.000000   0.000000     0.000000   0.000000   )
     freq (   65) =      34.059606 [THz] =    1136.106152 [cm-1]
 ( -0.000000   0.000000    -0.001880   0.000000    -0.002694   0.000000   )
 (  0.000000   0.000000    -0.001880   0.000000    -0.002694   0.000000   )
 (  0.000000   0.000000    -0.001880   0.000000     0.002694   0.000000   )
 ( -0.000000   0.000000    -0.001880   0.000000     0.002694   0.000000   )
 (  0.000000   0.000000     0.254743   0.000000    -0.048016   0.000000   )
 ( -0.000000   0.000000     0.254742   0.000000    -0.048016   0.000000   )
 ( -0.000000   0.000000     0.254743   0.000000     0.048016   0.000000   )
 (  0.000000   0.000000     0.254742   0.000000     0.048016   0.000000   )
 ( -0.116940   0.000000    -0.088493   0.000000    -0.005633   0.000000   )
 (  0.116940   0.000000    -0.088493   0.000000    -0.005633   0.000000   )
 (  0.116940   0.000000    -0.088493   0.000000     0.005633   0.000000   )
 ( -0.116940   0.000000    -0.088493   0.000000     0.005633   0.000000   )
 ( -0.116940   0.000000    -0.088493   0.000000    -0.005633   0.000000   )
 (  0.116940   0.000000    -0.088493   0.000000    -0.005633   0.000000   )
 (  0.116940   0.000000    -0.088493   0.000000     0.005633   0.000000   )
 ( -0.116940   0.000000    -0.088493   0.000000     0.005633   0.000000   )
 (  0.000000   0.000000    -0.086634   0.000000     0.133041   0.000000   )
 (  0.000000   0.000000    -0.086634   0.000000     0.133041   0.000000   )
 (  0.000000   0.000000    -0.086634   0.000000    -0.133041   0.000000   )
 ( -0.000000   0.000000    -0.086634   0.000000    -0.133041   0.000000   )
 (  0.000000   0.000000    -0.235891   0.000000    -0.242620   0.000000   )
 ( -0.000000   0.000000    -0.235892   0.000000    -0.242621   0.000000   )
 (  0.000000   0.000000    -0.235891   0.000000     0.242620   0.000000   )
 ( -0.000000   0.000000    -0.235892   0.000000     0.242621   0.000000   )
     freq (   66) =      34.128459 [THz] =    1138.402842 [cm-1]
 ( -0.000000   0.000000    -0.001589   0.000000     0.002354   0.000000   )
 (  0.000000   0.000000     0.001589   0.000000    -0.002354   0.000000   )
 (  0.000000   0.000000    -0.001589   0.000000    -0.002354   0.000000   )
 (  0.000000   0.000000     0.001589   0.000000     0.002354   0.000000   )
 (  0.000000   0.000000     0.234106   0.000000    -0.114184   0.000000   )
 ( -0.000000   0.000000    -0.234107   0.000000     0.114184   0.000000   )
 ( -0.000000   0.000000     0.234106   0.000000     0.114184   0.000000   )
 ( -0.000000   0.000000    -0.234107   0.000000    -0.114184   0.000000   )
 (  0.121387   0.000000     0.096915   0.000000     0.007642   0.000000   )
 (  0.121387   0.000000    -0.096914   0.000000    -0.007642   0.000000   )
 ( -0.121387   0.000000     0.096915   0.000000    -0.007642   0.000000   )
 ( -0.121387   0.000000    -0.096915   0.000000     0.007642   0.000000   )
 ( -0.121387   0.000000    -0.096914   0.000000    -0.007642   0.000000   )
 ( -0.121387   0.000000     0.096915   0.000000     0.007642   0.000000   )
 (  0.121387   0.000000    -0.096915   0.000000     0.007642   0.000000   )
 (  0.121387   0.000000     0.096915   0.000000    -0.007642   0.000000   )
 ( -0.000000   0.000000     0.014703   0.000000    -0.016079   0.000000   )
 ( -0.000000   0.000000    -0.014703   0.000000     0.016078   0.000000   )
 ( -0.000000   0.000000     0.014703   0.000000     0.016079   0.000000   )
 ( -0.000000   0.000000    -0.014703   0.000000    -0.016079   0.000000   )
 ( -0.000000   0.000000     0.253341   0.000000     0.262908   0.000000   )
 ( -0.000000   0.000000    -0.253341   0.000000    -0.262907   0.000000   )
 ( -0.000000   0.000000     0.253342   0.000000    -0.262908   0.000000   )
 ( -0.000000   0.000000    -0.253340   0.000000     0.262907   0.000000   )
     freq (   67) =      34.774234 [THz] =    1159.943603 [cm-1]
 (  0.000000   0.000000     0.006639   0.000000     0.000610   0.000000   )
 ( -0.000000   0.000000     0.006639   0.000000     0.000610   0.000000   )
 ( -0.000000   0.000000    -0.006639   0.000000     0.000610   0.000000   )
 (  0.000000   0.000000    -0.006639   0.000000     0.000610   0.000000   )
 (  0.000000   0.000000     0.250714   0.000000    -0.028197   0.000000   )
 (  0.000000   0.000000     0.250714   0.000000    -0.028197   0.000000   )
 (  0.000000   0.000000    -0.250714   0.000000    -0.028197   0.000000   )
 ( -0.000000   0.000000    -0.250714   0.000000    -0.028197   0.000000   )
 ( -0.133931   0.000000    -0.094827   0.000000    -0.012330   0.000000   )
 (  0.133932   0.000000    -0.094827   0.000000    -0.012330   0.000000   )
 ( -0.133931   0.000000     0.094827   0.000000    -0.012330   0.000000   )
 (  0.133931   0.000000     0.094827   0.000000    -0.012330   0.000000   )
 ( -0.133932   0.000000    -0.094827   0.000000    -0.012330   0.000000   )
 (  0.133931   0.000000    -0.094827   0.000000    -0.012330   0.000000   )
 ( -0.133932   0.000000     0.094827   0.000000    -0.012330   0.000000   )
 (  0.133932   0.000000     0.094827   0.000000    -0.012330   0.000000   )
 ( -0.000000   0.000000     0.095018   0.000000    -0.148096   0.000000   )
 (  0.000000   0.000000     0.095018   0.000000    -0.148096   0.000000   )
 (  0.000000   0.000000    -0.095018   0.000000    -0.148096   0.000000   )
 ( -0.000000   0.000000    -0.095018   0.000000    -0.148096   0.000000   )
 ( -0.000000   0.000000     0.223913   0.000000     0.225924   0.000000   )
 (  0.000000   0.000000     0.223913   0.000000     0.225924   0.000000   )
 (  0.000000   0.000000    -0.223913   0.000000     0.225924   0.000000   )
 ( -0.000000   0.000000    -0.223913   0.000000     0.225924   0.000000   )
     freq (   68) =      35.500512 [THz] =    1184.169602 [cm-1]
 ( -0.000000   0.000000    -0.005795   0.000000     0.004513   0.000000   )
 (  0.000000   0.000000     0.005795   0.000000    -0.004513   0.000000   )
 (  0.000000   0.000000     0.005795   0.000000     0.004513   0.000000   )
 (  0.000000   0.000000    -0.005795   0.000000    -0.004513   0.000000   )
 (  0.000000   0.000000    -0.202691   0.000000     0.167621   0.000000   )
 (  0.000000   0.000000     0.202691   0.000000    -0.167621   0.000000   )
 ( -0.000000   0.000000     0.202691   0.000000     0.167621   0.000000   )
 ( -0.000000   0.000000    -0.202691   0.000000    -0.167621   0.000000   )
 ( -0.104053   0.000000    -0.092453   0.000000    -0.002419   0.000000   )
 ( -0.104053   0.000000     0.092453   0.000000     0.002419   0.000000   )
 ( -0.104053   0.000000     0.092453   0.000000    -0.002419   0.000000   )
 ( -0.104053   0.000000    -0.092453   0.000000     0.002419   0.000000   )
 (  0.104053   0.000000     0.092453   0.000000     0.002419   0.000000   )
 (  0.104053   0.000000    -0.092453   0.000000    -0.002419   0.000000   )
 (  0.104053   0.000000    -0.092453   0.000000     0.002419   0.000000   )
 (  0.104053   0.000000     0.092453   0.000000    -0.002419   0.000000   )
 ( -0.000000   0.000000    -0.017153   0.000000     0.068872   0.000000   )
 ( -0.000000   0.000000     0.017153   0.000000    -0.068872   0.000000   )
 (  0.000000   0.000000     0.017153   0.000000     0.068872   0.000000   )
 (  0.000000   0.000000    -0.017153   0.000000    -0.068872   0.000000   )
 ( -0.000000   0.000000     0.251732   0.000000     0.271290   0.000000   )
 ( -0.000000   0.000000    -0.251732   0.000000    -0.271290   0.000000   )
 (  0.000000   0.000000    -0.251732   0.000000     0.271290   0.000000   )
 (  0.000000   0.000000     0.251732   0.000000    -0.271290   0.000000   )
     freq (   69) =      35.789219 [THz] =    1193.799834 [cm-1]
 (  0.000000   0.000000     0.001975   0.000000    -0.000049   0.000000   )
 ( -0.000000   0.000000    -0.001975   0.000000     0.000049   0.000000   )
 ( -0.000000   0.000000     0.001975   0.000000     0.000049   0.000000   )
 (  0.000000   0.000000    -0.001975   0.000000    -0.000049   0.000000   )
 ( -0.000000   0.000000    -0.112729   0.000000    -0.226418   0.000000   )
 (  0.000000   0.000000     0.112729   0.000000     0.226418   0.000000   )
 (  0.000000   0.000000    -0.112729   0.000000     0.226418   0.000000   )
 ( -0.000000   0.000000     0.112729   0.000000    -0.226418   0.000000   )
 ( -0.063141   0.000000    -0.054913   0.000000    -0.007383   0.000000   )
 ( -0.063141   0.000000     0.054913   0.000000     0.007383   0.000000   )
 (  0.063141   0.000000    -0.054913   0.000000     0.007383   0.000000   )
 (  0.063141   0.000000     0.054913   0.000000    -0.007383   0.000000   )
 (  0.063141   0.000000     0.054913   0.000000     0.007383   0.000000   )
 (  0.063141   0.000000    -0.054913   0.000000    -0.007383   0.000000   )
 ( -0.063141   0.000000     0.054913   0.000000    -0.007383   0.000000   )
 ( -0.063141   0.000000    -0.054913   0.000000     0.007383   0.000000   )
 (  0.000000   0.000000    -0.186614   0.000000     0.356914   0.000000   )
 (  0.000000   0.000000     0.186614   0.000000    -0.356914   0.000000   )
 (  0.000000   0.000000    -0.186614   0.000000    -0.356914   0.000000   )
 (  0.000000   0.000000     0.186614   0.000000     0.356914   0.000000   )
 (  0.000000   0.000000     0.058766   0.000000     0.079019   0.000000   )
 (  0.000000   0.000000    -0.058766   0.000000    -0.079019   0.000000   )
 (  0.000000   0.000000     0.058766   0.000000    -0.079019   0.000000   )
 (  0.000000   0.000000    -0.058766   0.000000     0.079019   0.000000   )
     freq (   70) =      36.374469 [THz] =    1213.321686 [cm-1]
 (  0.000000   0.000000     0.002412   0.000000     0.002238   0.000000   )
 ( -0.000000   0.000000     0.002412   0.000000     0.002238   0.000000   )
 ( -0.000000   0.000000    -0.002412   0.000000     0.002238   0.000000   )
 (  0.000000   0.000000    -0.002412   0.000000     0.002238   0.000000   )
 ( -0.000000   0.000000    -0.018929   0.000000    -0.253755   0.000000   )
 (  0.000000   0.000000    -0.018928   0.000000    -0.253754   0.000000   )
 (  0.000000   0.000000     0.018929   0.000000    -0.253755   0.000000   )
 ( -0.000000   0.000000     0.018928   0.000000    -0.253754   0.000000   )
 (  0.015848   0.000000     0.000729   0.000000     0.004168   0.000000   )
 ( -0.015848   0.000000     0.000729   0.000000     0.004169   0.000000   )
 (  0.015848   0.000000    -0.000729   0.000000     0.004168   0.000000   )
 ( -0.015848   0.000000    -0.000729   0.000000     0.004168   0.000000   )
 (  0.015848   0.000000     0.000729   0.000000     0.004168   0.000000   )
 ( -0.015848   0.000000     0.000729   0.000000     0.004168   0.000000   )
 (  0.015848   0.000000    -0.000729   0.000000     0.004168   0.000000   )
 ( -0.015848   0.000000    -0.000729   0.000000     0.004168   0.000000   )
 (  0.000000   0.000000    -0.168100   0.000000     0.337575   0.000000   )
 ( -0.000000   0.000000    -0.168100   0.000000     0.337575   0.000000   )
 ( -0.000000   0.000000     0.168100   0.000000     0.337575   0.000000   )
 (  0.000000   0.000000     0.168100   0.000000     0.337575   0.000000   )
 ( -0.000000   0.000000     0.140148   0.000000     0.151147   0.000000   )
 (  0.000000   0.000000     0.140148   0.000000     0.151146   0.000000   )
 (  0.000000   0.000000    -0.140148   0.000000     0.151146   0.000000   )
 ( -0.000000   0.000000    -0.140148   0.000000     0.151146   0.000000   )
     freq (   71) =      36.510730 [THz] =    1217.866853 [cm-1]
 ( -0.000000   0.000000    -0.005672   0.000000     0.002397   0.000000   )
 (  0.000000   0.000000     0.005672   0.000000    -0.002397   0.000000   )
 (  0.000000   0.000000     0.005672   0.000000     0.002397   0.000000   )
 (  0.000000   0.000000    -0.005672   0.000000    -0.002397   0.000000   )
 (  0.000000   0.000000    -0.165408   0.000000    -0.201235   0.000000   )
 (  0.000000   0.000000     0.165408   0.000000     0.201235   0.000000   )
 ( -0.000000   0.000000     0.165408   0.000000    -0.201235   0.000000   )
 ( -0.000000   0.000000    -0.165409   0.000000     0.201236   0.000000   )
 ( -0.080746   0.000000    -0.081916   0.000000    -0.018868   0.000000   )
 ( -0.080746   0.000000     0.081916   0.000000     0.018868   0.000000   )
 ( -0.080746   0.000000     0.081916   0.000000    -0.018868   0.000000   )
 ( -0.080746   0.000000    -0.081916   0.000000     0.018868   0.000000   )
 (  0.080746   0.000000     0.081916   0.000000     0.018868   0.000000   )
 (  0.080746   0.000000    -0.081916   0.000000    -0.018868   0.000000   )
 (  0.080746   0.000000    -0.081916   0.000000     0.018868   0.000000   )
 (  0.080746   0.000000     0.081916   0.000000    -0.018868   0.000000   )
 ( -0.000000   0.000000     0.184285   0.000000    -0.346865   0.000000   )
 ( -0.000000   0.000000    -0.184285   0.000000     0.346865   0.000000   )
 (  0.000000   0.000000    -0.184285   0.000000    -0.346865   0.000000   )
 (  0.000000   0.000000     0.184285   0.000000     0.346865   0.000000   )
 (  0.000000   0.000000     0.007332   0.000000    -0.024573   0.000000   )
 (  0.000000   0.000000    -0.007332   0.000000     0.024573   0.000000   )
 ( -0.000000   0.000000    -0.007332   0.000000    -0.024573   0.000000   )
 (  0.000000   0.000000     0.007332   0.000000     0.024573   0.000000   )
     freq (   72) =      38.127054 [THz] =    1271.781622 [cm-1]
 (  0.000000   0.000000    -0.000615   0.000000     0.004290   0.000000   )
 ( -0.000000   0.000000    -0.000615   0.000000     0.004290   0.000000   )
 (  0.000000   0.000000    -0.000615   0.000000    -0.004290   0.000000   )
 ( -0.000000   0.000000    -0.000615   0.000000    -0.004290   0.000000   )
 ( -0.000000   0.000000    -0.038878   0.000000    -0.261878   0.000000   )
 (  0.000000   0.000000    -0.038878   0.000000    -0.261878   0.000000   )
 ( -0.000000   0.000000    -0.038878   0.000000     0.261878   0.000000   )
 (  0.000000   0.000000    -0.038878   0.000000     0.261878   0.000000   )
 (  0.023305   0.000000     0.017488   0.000000     0.035029   0.000000   )
 ( -0.023305   0.000000     0.017488   0.000000     0.035029   0.000000   )
 ( -0.023305   0.000000     0.017488   0.000000    -0.035029   0.000000   )
 (  0.023305   0.000000     0.017488   0.000000    -0.035029   0.000000   )
 (  0.023305   0.000000     0.017488   0.000000     0.035029   0.000000   )
 ( -0.023305   0.000000     0.017488   0.000000     0.035029   0.000000   )
 ( -0.023305   0.000000     0.017488   0.000000    -0.035029   0.000000   )
 (  0.023305   0.000000     0.017488   0.000000    -0.035029   0.000000   )
 ( -0.000000   0.000000     0.161352   0.000000    -0.339100   0.000000   )
 (  0.000000   0.000000     0.161352   0.000000    -0.339100   0.000000   )
 ( -0.000000   0.000000     0.161352   0.000000     0.339100   0.000000   )
 (  0.000000   0.000000     0.161352   0.000000     0.339100   0.000000   )
 (  0.000000   0.000000    -0.116009   0.000000    -0.145797   0.000000   )
 (  0.000000   0.000000    -0.116009   0.000000    -0.145797   0.000000   )
 (  0.000000   0.000000    -0.116009   0.000000     0.145797   0.000000   )
 ( -0.000000   0.000000    -0.116009   0.000000     0.145797   0.000000   )
 **************************************************************************
