
     Program PWSCF v.6.7MaX starts on  3Jul2026 at 18:24:21 

     This program is part of the open-source Quantum ESPRESSO suite
     for quantum simulation of materials; please cite
         "P. Giannozzi et al., J. Phys.:Condens. Matter 21 395502 (2009);
         "P. Giannozzi et al., J. Phys.:Condens. Matter 29 465901 (2017);
          URL http://www.quantum-espresso.org", 
     in publications or presentations arising from this work. More details at
     http://www.quantum-espresso.org/quote

     Parallel version (MPI), running on     8 processors

     MPI processes distributed on     1 nodes
     K-points division:     npool     =       2
     R & G space division:  proc/nbgrp/npool/nimage =       4
     Waiting for input...
     Reading input from standard input
Warning: card &CELL ignored
Warning: card / ignored

     Current dimensions of program PWSCF are:
     Max number of different atomic species (ntypx) = 10
     Max number of k-points (npk) =  40000
     Max angular momentum in pseudopotentials (lmaxx) =  3
     file Sr.pbe-spn-kjpaw_psl.1.0.0.UPF: wavefunction(s)  4P renormalized
     file O.pbe-n-kjpaw_psl.0.1.UPF: wavefunction(s)  2P renormalized

     Subspace diagonalization in iterative solution of the eigenvalue problem:
     one sub-group per band group will be used
     scalapack distributed-memory algorithm (size of sub-group:  2*  2 procs)


     Parallelization info
     --------------------
     sticks:   dense  smooth     PW     G-vecs:    dense   smooth      PW
     Min        1044     520    141                69916    24712    3493
     Max        1045     521    143                69917    24715    3494
     Sum        4179    2083    569               279667    98857   13973



     bravais-lattice index     =            0
     lattice parameter (alat)  =      10.0965  a.u.
     unit-cell volume          =    2069.8800 (a.u.)^3
     number of atoms/cell      =           24
     number of atomic types    =            3
     number of electrons       =       160.00
     number of Kohn-Sham states=           80
     kinetic-energy cutoff     =      50.0000  Ry
     charge density cutoff     =     400.0000  Ry
     scf convergence threshold =      1.0E-10
     mixing beta               =       0.3000
     number of iterations used =            8  plain     mixing
     Exchange-correlation= SLA  PW   PBX  PBC
                           (   1   4   3   4   0   0   0)

     celldm(1)=  10.096471  celldm(2)=   0.000000  celldm(3)=   0.000000
     celldm(4)=   0.000000  celldm(5)=   0.000000  celldm(6)=   0.000000

     crystal axes: (cart. coord. in units of alat)
               a(1) = (   1.000000   0.000000   0.000000 )  
               a(2) = (   0.000000   1.285939   0.000000 )  
               a(3) = (   0.000000   0.000000   1.563925 )  

     reciprocal axes: (cart. coord. in units 2 pi/alat)
               b(1) = (  1.000000  0.000000  0.000000 )  
               b(2) = (  0.000000  0.777642  0.000000 )  
               b(3) = (  0.000000  0.000000  0.639417 )  


     PseudoPot. # 1 for Sr read from file:
     /data/pseudopotentials/Sr.pbe-spn-kjpaw_psl.1.0.0.UPF
     MD5 check sum: a3c6d0287e6b0f325c5350c23079ab60
     Pseudo is Projector augmented-wave + core cor, Zval = 10.0
     Generated using &quot;atomic&quot; code by A. Dal Corso  v.6.2.2
     Shape of augmentation charge: PSQ
     Using radial grid of 1221 points,  6 beta functions with: 
                l(1) =   0
                l(2) =   0
                l(3) =   1
                l(4) =   1
                l(5) =   2
                l(6) =   2
     Q(r) pseudized with 0 coefficients 


     PseudoPot. # 2 for S  read from file:
     /data/pseudopotentials/s_pbe_v1.4.uspp.F.UPF
     MD5 check sum: 88d86576ff6df21479756cfb9bdac1df
     Pseudo is Ultrasoft + core correction, Zval =  6.0
     Generated by new atomic code, or converted to UPF format
     Using radial grid of  907 points,  6 beta functions with: 
                l(1) =   0
                l(2) =   0
                l(3) =   1
                l(4) =   1
                l(5) =   2
                l(6) =   2
     Q(r) pseudized with  8 coefficients,  rinner =    1.300   1.300   1.300
                                                       1.300   1.300

     PseudoPot. # 3 for O  read from file:
     /data/pseudopotentials/O.pbe-n-kjpaw_psl.0.1.UPF
     MD5 check sum: 833c495a5d0f9b75bf046115549bffff
     Pseudo is Projector augmented-wave + core cor, Zval =  6.0
     Generated using &quot;atomic&quot; code by A. Dal Corso  v.6.3
     Shape of augmentation charge: BESSEL
     Using radial grid of 1095 points,  4 beta functions with: 
                l(1) =   0
                l(2) =   0
                l(3) =   1
                l(4) =   1
     Q(r) pseudized with 0 coefficients 


     atomic species   valence    mass     pseudopotential
        Sr            10.00    87.62000     Sr( 1.00)
        S              6.00    32.06000     S ( 1.00)
        O              6.00    15.99900     O ( 1.00)

     No symmetry found



   Cartesian axes

     site n.     atom                  positions (alat units)
         1           Sr  tau(   1) = (   0.2500000   0.4410079   1.0691119  )
         2           Sr  tau(   2) = (   0.7500000   0.8449310   0.4948134  )
         3           Sr  tau(   3) = (   0.7500000   1.0839774   1.2767760  )
         4           Sr  tau(   4) = (   0.2500000   0.2019615   0.2871492  )
         5           S   tau(   5) = (   0.7500000   0.4060452   1.4665562  )
         6           S   tau(   6) = (   0.2500000   0.8798937   0.0973690  )
         7           S   tau(   7) = (   0.2500000   1.0490146   0.8793316  )
         8           S   tau(   8) = (   0.7500000   0.2369243   0.6845936  )
         9           O   tau(   9) = (   0.4748746   1.0419355   0.1219647  )
        10           O   tau(  10) = (   0.9748746   0.2440034   1.4419605  )
        11           O   tau(  11) = (   0.5251254   0.3989661   0.6599979  )
        12           O   tau(  12) = (   0.0251254   0.8869728   0.9039273  )
        13           O   tau(  13) = (   0.5251254   0.2440034   1.4419605  )
        14           O   tau(  14) = (   0.0251254   1.0419355   0.1219647  )
        15           O   tau(  15) = (   0.4748746   0.8869728   0.9039273  )
        16           O   tau(  16) = (   0.9748746   0.3989661   0.6599979  )
        17           O   tau(  17) = (   0.7500000   0.1181767   0.9305090  )
        18           O   tau(  18) = (   0.2500000   1.1677622   0.6334162  )
        19           O   tau(  19) = (   0.2500000   0.7611461   1.4153788  )
        20           O   tau(  20) = (   0.7500000   0.5247927   0.1485464  )
        21           O   tau(  21) = (   0.7500000   0.0533567   0.4791518  )
        22           O   tau(  22) = (   0.2500000   1.2325822   1.0847735  )
        23           O   tau(  23) = (   0.2500000   0.6963261   0.3028109  )
        24           O   tau(  24) = (   0.7500000   0.5896128   1.2611144  )

     number of k points=    14
                       cart. coord. in units 2pi/alat
        k(    1) = (   0.0000000   0.0000000   0.0000000), wk =   0.0740741
        k(    2) = (   0.0000000   0.0000000   0.2131389), wk =   0.1481481
        k(    3) = (   0.0000000   0.2592140   0.0000000), wk =   0.1481481
        k(    4) = (   0.0000000   0.2592140   0.2131389), wk =   0.1481481
        k(    5) = (   0.0000000   0.2592140  -0.2131389), wk =   0.1481481
        k(    6) = (   0.3333333   0.0000000   0.0000000), wk =   0.1481481
        k(    7) = (   0.3333333   0.0000000   0.2131389), wk =   0.1481481
        k(    8) = (   0.3333333   0.0000000  -0.2131389), wk =   0.1481481
        k(    9) = (   0.3333333   0.2592140   0.0000000), wk =   0.1481481
        k(   10) = (   0.3333333   0.2592140   0.2131389), wk =   0.1481481
        k(   11) = (   0.3333333   0.2592140  -0.2131389), wk =   0.1481481
        k(   12) = (   0.3333333  -0.2592140   0.0000000), wk =   0.1481481
        k(   13) = (   0.3333333  -0.2592140   0.2131389), wk =   0.1481481
        k(   14) = (   0.3333333  -0.2592140  -0.2131389), wk =   0.1481481

     Dense  grid:   279667 G-vectors     FFT dimensions: (  72,  90, 108)

     Smooth grid:    98857 G-vectors     FFT dimensions: (  45,  60,  72)

     Estimated max dynamical RAM per process >     217.16 MB

     Estimated total dynamical RAM >       1.70 GB

     Check: negative core charge=   -0.000002

     Initial potential from superposition of free atoms

     starting charge  159.96944, renormalised to  160.00000
     Starting wfcs are  112 randomized atomic wfcs
     Checking if some PAW data can be deallocated... 

     total cpu time spent up to now is       39.0 secs

     Self-consistent Calculation

     iteration #  1     ecut=    50.00 Ry     beta= 0.30
     Davidson diagonalization with overlap
     ethr =  1.00E-02,  avg # of iterations =  2.0

     total cpu time spent up to now is      115.4 secs

     total energy              =   -1804.56665531 Ry
     estimated scf accuracy    <       5.70692223 Ry

     iteration #  2     ecut=    50.00 Ry     beta= 0.30
     Davidson diagonalization with overlap
     ethr =  3.57E-03,  avg # of iterations =  2.0

     total cpu time spent up to now is      189.0 secs

     total energy              =   -1805.46338414 Ry
     estimated scf accuracy    <       0.36059114 Ry

     iteration #  3     ecut=    50.00 Ry     beta= 0.30
     Davidson diagonalization with overlap
     ethr =  2.25E-04,  avg # of iterations =  3.0

     total cpu time spent up to now is      280.0 secs

     total energy              =   -1805.57393572 Ry
     estimated scf accuracy    <       0.11996761 Ry

     iteration #  4     ecut=    50.00 Ry     beta= 0.30
     Davidson diagonalization with overlap
     ethr =  7.50E-05,  avg # of iterations =  4.0

     total cpu time spent up to now is      376.1 secs

     total energy              =   -1805.58959880 Ry
     estimated scf accuracy    <       0.13525864 Ry

     iteration #  5     ecut=    50.00 Ry     beta= 0.30
     Davidson diagonalization with overlap
     ethr =  7.50E-05,  avg # of iterations =  2.0

     total cpu time spent up to now is      444.7 secs

     total energy              =   -1805.59511310 Ry
     estimated scf accuracy    <       0.01523411 Ry

     iteration #  6     ecut=    50.00 Ry     beta= 0.30
     Davidson diagonalization with overlap
     ethr =  9.52E-06,  avg # of iterations =  3.1

     total cpu time spent up to now is      535.2 secs

     total energy              =   -1805.60365388 Ry
     estimated scf accuracy    <       0.00709638 Ry

     iteration #  7     ecut=    50.00 Ry     beta= 0.30
     Davidson diagonalization with overlap
     ethr =  4.44E-06,  avg # of iterations =  2.0

     total cpu time spent up to now is      606.4 secs

     total energy              =   -1805.60359429 Ry
     estimated scf accuracy    <       0.00100766 Ry

     iteration #  8     ecut=    50.00 Ry     beta= 0.30
     Davidson diagonalization with overlap
     ethr =  6.30E-07,  avg # of iterations =  5.0

     total cpu time spent up to now is      723.9 secs

     total energy              =   -1805.60365025 Ry
     estimated scf accuracy    <       0.00450706 Ry

     iteration #  9     ecut=    50.00 Ry     beta= 0.30
     Davidson diagonalization with overlap
     ethr =  6.30E-07,  avg # of iterations =  3.0

     total cpu time spent up to now is      816.2 secs

     total energy              =   -1805.60437980 Ry
     estimated scf accuracy    <       0.00004772 Ry

     iteration # 10     ecut=    50.00 Ry     beta= 0.30
     Davidson diagonalization with overlap
     ethr =  2.98E-08,  avg # of iterations =  5.0

     total cpu time spent up to now is      923.9 secs

     total energy              =   -1805.60440444 Ry
     estimated scf accuracy    <       0.00003128 Ry

     iteration # 11     ecut=    50.00 Ry     beta= 0.30
     Davidson diagonalization with overlap
     ethr =  1.95E-08,  avg # of iterations =  3.0

     total cpu time spent up to now is     1016.9 secs

     total energy              =   -1805.60441651 Ry
     estimated scf accuracy    <       0.00001950 Ry

     iteration # 12     ecut=    50.00 Ry     beta= 0.30
     Davidson diagonalization with overlap
     ethr =  1.22E-08,  avg # of iterations =  2.0

     total cpu time spent up to now is     1083.9 secs

     total energy              =   -1805.60441766 Ry
     estimated scf accuracy    <       0.00000260 Ry

     iteration # 13     ecut=    50.00 Ry     beta= 0.30
     Davidson diagonalization with overlap
     ethr =  1.63E-09,  avg # of iterations =  4.0

     total cpu time spent up to now is     1165.9 secs

     total energy              =   -1805.60441830 Ry
     estimated scf accuracy    <       0.00000006 Ry

     iteration # 14     ecut=    50.00 Ry     beta= 0.30
     Davidson diagonalization with overlap
     ethr =  3.93E-11,  avg # of iterations =  4.8

     total cpu time spent up to now is     1279.6 secs

     total energy              =   -1805.60441836 Ry
     estimated scf accuracy    <       0.00000010 Ry

     iteration # 15     ecut=    50.00 Ry     beta= 0.30
     Davidson diagonalization with overlap
     ethr =  3.93E-11,  avg # of iterations =  2.0

     total cpu time spent up to now is     1350.9 secs

     total energy              =   -1805.60441836 Ry
     estimated scf accuracy    <       0.00000001 Ry

     iteration # 16     ecut=    50.00 Ry     beta= 0.30
     Davidson diagonalization with overlap
     ethr =  9.16E-12,  avg # of iterations =  3.5

     total cpu time spent up to now is     1444.7 secs

     total energy              =   -1805.60441837 Ry
     estimated scf accuracy    <          5.5E-09 Ry

     iteration # 17     ecut=    50.00 Ry     beta= 0.30
     Davidson diagonalization with overlap
     ethr =  3.42E-12,  avg # of iterations =  1.5

     total cpu time spent up to now is     1499.9 secs

     total energy              =   -1805.60441837 Ry
     estimated scf accuracy    <          2.8E-09 Ry

     iteration # 18     ecut=    50.00 Ry     beta= 0.30
     Davidson diagonalization with overlap
     ethr =  1.72E-12,  avg # of iterations =  2.0

     total cpu time spent up to now is     1569.3 secs

     total energy              =   -1805.60441837 Ry
     estimated scf accuracy    <          7.1E-10 Ry

     iteration # 19     ecut=    50.00 Ry     beta= 0.30
     Davidson diagonalization with overlap
     ethr =  4.41E-13,  avg # of iterations =  2.0

     total cpu time spent up to now is     1642.4 secs

     End of self-consistent calculation

          k = 0.0000 0.0000 0.0000 ( 12357 PWs)   bands (ev):

   -26.3061 -26.2951 -26.2930 -26.2901 -17.1286 -17.0814 -16.9925 -16.9505
   -12.9324 -12.9006 -12.8405 -12.7809 -12.7394 -12.7219 -12.6968 -12.6639
   -12.6515 -12.6464 -12.6269 -12.6222  -8.4296  -8.3857  -8.3526  -8.3445
    -8.3409  -8.2721  -8.2683  -8.2616  -8.2520  -8.2431  -8.2269  -8.2074
    -2.8640  -2.3473  -2.0150  -2.0029  -0.3928  -0.2883  -0.1065  -0.1007
    -0.0871  -0.0466   0.2317   0.2482   0.2760   0.4763   0.5516   0.6330
     2.4072   2.5727   2.6708   2.6870   2.8551   2.9721   3.0101   3.0408
     3.0507   3.1023   3.1866   3.2516   3.3915   3.5898   3.7288   3.8506
     4.1405   4.1769   4.2756   4.3804   4.7904   5.2619   5.3929   5.4513
     5.5008   5.5048   5.5710   5.5801   5.6964   5.7666   5.7790   5.8310

          k = 0.0000 0.0000 0.2131 ( 12364 PWs)   bands (ev):

   -26.3036 -26.2983 -26.2921 -26.2905 -17.1175 -17.0940 -16.9815 -16.9605
   -12.9063 -12.8659 -12.8622 -12.7773 -12.7615 -12.7199 -12.7199 -12.6835
   -12.6430 -12.6356 -12.6279 -12.6219  -8.4005  -8.3540  -8.3419  -8.3291
    -8.3252  -8.3216  -8.2920  -8.2691  -8.2644  -8.2588  -8.2275  -8.2023
    -2.7015  -2.4076  -2.1026  -2.0708  -0.2518  -0.2388  -0.2200  -0.1777
    -0.1220   0.0789   0.1541   0.2616   0.2962   0.4490   0.5355   0.6096
     2.5885   2.6059   2.6639   2.7321   2.7946   2.9856   3.0274   3.0553
     3.0940   3.1109   3.2613   3.3023   3.4413   3.4911   3.6165   3.8259
     4.0063   4.1927   4.2146   4.3308   4.9616   5.2937   5.3208   5.4357
     5.4670   5.4705   5.4711   5.5423   5.7473   5.7932   5.8233   5.8253

          k = 0.0000 0.2592 0.0000 ( 12367 PWs)   bands (ev):

   -26.3031 -26.2967 -26.2936 -26.2909 -17.1170 -17.0913 -16.9923 -16.9690
   -12.9332 -12.9201 -12.7663 -12.7569 -12.7160 -12.7150 -12.7119 -12.6655
   -12.6503 -12.6503 -12.6327 -12.6277  -8.4151  -8.3790  -8.3625  -8.3530
    -8.3379  -8.3049  -8.2963  -8.2863  -8.2763  -8.2530  -8.2358  -8.2357
    -2.6003  -2.2789  -2.1763  -2.1112  -0.3379  -0.2359  -0.1217  -0.0914
     0.0495   0.0724   0.1411   0.3514   0.3549   0.3807   0.3849   0.4619
     2.4792   2.5648   2.6809   2.7514   2.7573   2.8593   2.9868   3.1364
     3.1617   3.1724   3.3036   3.3386   3.3916   3.5137   3.7933   3.8333
     3.8617   4.0744   4.1996   4.3310   4.8890   5.2488   5.3657   5.4528
     5.4720   5.5542   5.5868   5.6095   5.6591   5.7107   5.7853   5.9020

          k = 0.0000 0.2592 0.2131 ( 12354 PWs)   bands (ev):

   -26.3010 -26.2971 -26.2942 -26.2920 -17.1085 -17.0950 -16.9897 -16.9774
   -12.9008 -12.8875 -12.7807 -12.7556 -12.7423 -12.7177 -12.7110 -12.6822
   -12.6520 -12.6489 -12.6407 -12.6295  -8.3955  -8.3496  -8.3483  -8.3477
    -8.3330  -8.3310  -8.3022  -8.2820  -8.2819  -8.2663  -8.2501  -8.2425
    -2.5097  -2.3304  -2.1877  -2.1775  -0.2458  -0.2175  -0.1265  -0.0552
     0.0185   0.0250   0.2040   0.2801   0.3533   0.3713   0.3846   0.4014
     2.5699   2.6573   2.6871   2.7143   2.7664   2.9328   3.0110   3.1612
     3.1920   3.2061   3.2487   3.3112   3.3797   3.4642   3.6500   3.7374
     3.9455   4.0696   4.2283   4.2957   4.9924   5.1801   5.4074   5.4677
     5.4857   5.5126   5.5354   5.5750   5.6247   5.7096   5.8367   5.8888

          k = 0.0000 0.2592-0.2131 ( 12354 PWs)   bands (ev):

   -26.3010 -26.2971 -26.2942 -26.2920 -17.1085 -17.0950 -16.9897 -16.9774
   -12.9008 -12.8875 -12.7807 -12.7556 -12.7423 -12.7177 -12.7110 -12.6822
   -12.6520 -12.6489 -12.6407 -12.6295  -8.3955  -8.3496  -8.3483  -8.3477
    -8.3330  -8.3310  -8.3022  -8.2820  -8.2819  -8.2663  -8.2501  -8.2425
    -2.5097  -2.3304  -2.1877  -2.1775  -0.2458  -0.2175  -0.1265  -0.0552
     0.0185   0.0250   0.2040   0.2801   0.3533   0.3713   0.3846   0.4014
     2.5699   2.6573   2.6871   2.7143   2.7664   2.9328   3.0110   3.1612
     3.1920   3.2061   3.2487   3.3112   3.3797   3.4642   3.6500   3.7374
     3.9455   4.0696   4.2283   4.2957   4.9924   5.1801   5.4074   5.4677
     5.4857   5.5126   5.5354   5.5750   5.6247   5.7096   5.8367   5.8888

          k = 0.3333 0.0000 0.0000 ( 12353 PWs)   bands (ev):

   -26.3022 -26.2957 -26.2935 -26.2910 -17.1010 -17.0346 -17.0330 -16.9683
   -12.9500 -12.8611 -12.8299 -12.8079 -12.7552 -12.7407 -12.7163 -12.7030
   -12.6715 -12.6660 -12.6402 -12.6379  -8.3458  -8.3364  -8.3320  -8.3310
    -8.3289  -8.3152  -8.2683  -8.2649  -8.2547  -8.2494  -8.2305  -8.1933
    -2.4783  -2.2080  -2.0169  -2.0140  -0.4419  -0.1998  -0.1586  -0.1221
    -0.0695   0.0775   0.2235   0.2577   0.3893   0.4468   0.4666   0.5112
     2.4610   2.4804   2.5668   2.8602   2.9388   2.9765   3.0571   3.0705
     3.1425   3.1658   3.2627   3.3258   3.3624   3.5298   3.6933   3.7898
     3.8053   3.9761   4.0169   4.1654   5.0370   5.0563   5.3315   5.3380
     5.4077   5.4214   5.4570   5.4801   5.5583   5.6661   5.6977   5.7290

          k = 0.3333 0.0000 0.2131 ( 12360 PWs)   bands (ev):

   -26.3002 -26.2959 -26.2944 -26.2920 -17.0850 -17.0519 -17.0169 -16.9845
   -12.9054 -12.8280 -12.8205 -12.8193 -12.8065 -12.7485 -12.7365 -12.7161
   -12.6686 -12.6546 -12.6450 -12.6297  -8.3705  -8.3675  -8.3431  -8.3239
    -8.3118  -8.2830  -8.2758  -8.2680  -8.2484  -8.2423  -8.2243  -8.1928
    -2.3876  -2.2303  -2.0637  -2.0389  -0.4117  -0.2947  -0.1708  -0.1150
    -0.0170   0.1854   0.2024   0.2489   0.3383   0.3612   0.4848   0.4958
     2.5386   2.5744   2.7394   2.9049   2.9128   3.0242   3.0850   3.1055
     3.1633   3.1947   3.2029   3.2840   3.2955   3.4908   3.5134   3.5617
     3.9419   4.0317   4.0318   4.0984   5.1164   5.1403   5.2752   5.2794
     5.3841   5.3903   5.4697   5.4899   5.5376   5.6133   5.7084   5.7578

          k = 0.3333 0.0000-0.2131 ( 12360 PWs)   bands (ev):

   -26.3002 -26.2959 -26.2944 -26.2920 -17.0850 -17.0519 -17.0169 -16.9845
   -12.9054 -12.8280 -12.8205 -12.8193 -12.8065 -12.7485 -12.7365 -12.7161
   -12.6686 -12.6546 -12.6450 -12.6297  -8.3705  -8.3675  -8.3431  -8.3239
    -8.3118  -8.2830  -8.2758  -8.2680  -8.2484  -8.2423  -8.2243  -8.1928
    -2.3876  -2.2303  -2.0637  -2.0389  -0.4117  -0.2947  -0.1708  -0.1150
    -0.0170   0.1854   0.2024   0.2489   0.3383   0.3612   0.4848   0.4958
     2.5386   2.5744   2.7394   2.9049   2.9128   3.0242   3.0850   3.1055
     3.1633   3.1947   3.2029   3.2840   3.2955   3.4908   3.5134   3.5617
     3.9419   4.0317   4.0318   4.0984   5.1164   5.1403   5.2752   5.2794
     5.3841   5.3903   5.4697   5.4899   5.5376   5.6133   5.7084   5.7578

          k = 0.3333 0.2592 0.0000 ( 12356 PWs)   bands (ev):

   -26.3006 -26.2973 -26.2928 -26.2915 -17.0945 -17.0686 -17.0069 -16.9818
   -12.9332 -12.8880 -12.8471 -12.8129 -12.7957 -12.7556 -12.6875 -12.6681
   -12.6647 -12.6343 -12.6107 -12.6007  -8.3879  -8.3679  -8.3441  -8.3372
    -8.3103  -8.3099  -8.3082  -8.2814  -8.2734  -8.2641  -8.2104  -8.2057
    -2.2946  -2.1680  -2.1044  -2.0284  -0.2818  -0.2367  -0.2343  -0.0727
     0.0058   0.0288   0.1917   0.2620   0.4008   0.4027   0.4299   0.4994
     2.4879   2.5224   2.6164   2.8111   2.8794   2.8955   3.0010   3.0535
     3.2207   3.2263   3.2556   3.2697   3.4110   3.4723   3.7561   3.7564
     3.8091   3.9173   4.0398   4.1050   5.0132   5.0849   5.2089   5.2267
     5.4080   5.4323   5.4955   5.6151   5.6336   5.6957   5.7382   5.7453

          k = 0.3333 0.2592 0.2131 ( 12339 PWs)   bands (ev):

   -26.2988 -26.2961 -26.2945 -26.2928 -17.0799 -17.0627 -17.0138 -16.9970
   -12.8956 -12.8642 -12.8290 -12.8110 -12.7968 -12.7600 -12.7345 -12.7068
   -12.6494 -12.6363 -12.6123 -12.6036  -8.3792  -8.3542  -8.3479  -8.3404
    -8.3195  -8.3062  -8.2996  -8.2788  -8.2685  -8.2569  -8.2359  -8.2119
    -2.2526  -2.1783  -2.1011  -2.0653  -0.2948  -0.2362  -0.1771  -0.1328
     0.0284   0.1070   0.2094   0.2329   0.3058   0.3932   0.4406   0.4827
     2.4997   2.5403   2.6782   2.7750   2.8846   2.9262   3.0859   3.1190
     3.1571   3.2236   3.2397   3.3150   3.4114   3.4714   3.6436   3.6639
     3.8953   3.9606   4.0172   4.0415   5.0774   5.1467   5.2085   5.2485
     5.3181   5.3692   5.5256   5.5917   5.6536   5.6933   5.7053   5.7141

          k = 0.3333 0.2592-0.2131 ( 12339 PWs)   bands (ev):

   -26.2988 -26.2961 -26.2945 -26.2928 -17.0799 -17.0627 -17.0138 -16.9970
   -12.8956 -12.8642 -12.8290 -12.8110 -12.7968 -12.7600 -12.7345 -12.7068
   -12.6494 -12.6363 -12.6123 -12.6036  -8.3792  -8.3542  -8.3479  -8.3404
    -8.3195  -8.3062  -8.2996  -8.2788  -8.2685  -8.2569  -8.2359  -8.2119
    -2.2526  -2.1783  -2.1011  -2.0653  -0.2948  -0.2362  -0.1771  -0.1328
     0.0284   0.1070   0.2094   0.2329   0.3058   0.3932   0.4406   0.4827
     2.4997   2.5403   2.6782   2.7750   2.8846   2.9262   3.0859   3.1190
     3.1571   3.2236   3.2397   3.3150   3.4114   3.4714   3.6436   3.6639
     3.8953   3.9606   4.0172   4.0415   5.0774   5.1467   5.2085   5.2485
     5.3181   5.3692   5.5256   5.5917   5.6536   5.6933   5.7053   5.7141

          k = 0.3333-0.2592 0.0000 ( 12356 PWs)   bands (ev):

   -26.3006 -26.2973 -26.2928 -26.2915 -17.0945 -17.0686 -17.0069 -16.9818
   -12.9332 -12.8880 -12.8471 -12.8129 -12.7957 -12.7556 -12.6875 -12.6681
   -12.6647 -12.6343 -12.6107 -12.6007  -8.3879  -8.3679  -8.3441  -8.3372
    -8.3103  -8.3099  -8.3082  -8.2814  -8.2734  -8.2641  -8.2104  -8.2057
    -2.2946  -2.1680  -2.1044  -2.0284  -0.2818  -0.2367  -0.2343  -0.0727
     0.0058   0.0288   0.1917   0.2620   0.4008   0.4027   0.4299   0.4994
     2.4879   2.5224   2.6164   2.8111   2.8794   2.8955   3.0010   3.0535
     3.2207   3.2263   3.2556   3.2697   3.4110   3.4723   3.7561   3.7564
     3.8091   3.9173   4.0398   4.1050   5.0132   5.0849   5.2089   5.2267
     5.4080   5.4323   5.4955   5.6151   5.6336   5.6957   5.7382   5.7453

          k = 0.3333-0.2592 0.2131 ( 12339 PWs)   bands (ev):

   -26.2988 -26.2961 -26.2945 -26.2928 -17.0799 -17.0627 -17.0138 -16.9970
   -12.8956 -12.8642 -12.8290 -12.8110 -12.7968 -12.7600 -12.7345 -12.7068
   -12.6494 -12.6363 -12.6123 -12.6036  -8.3792  -8.3542  -8.3479  -8.3404
    -8.3195  -8.3062  -8.2996  -8.2788  -8.2685  -8.2569  -8.2359  -8.2119
    -2.2526  -2.1783  -2.1011  -2.0653  -0.2948  -0.2362  -0.1771  -0.1328
     0.0284   0.1070   0.2094   0.2329   0.3058   0.3932   0.4406   0.4827
     2.4997   2.5403   2.6782   2.7750   2.8846   2.9262   3.0859   3.1190
     3.1571   3.2236   3.2397   3.3150   3.4114   3.4714   3.6436   3.6639
     3.8953   3.9606   4.0172   4.0415   5.0774   5.1467   5.2085   5.2485
     5.3181   5.3692   5.5256   5.5917   5.6536   5.6933   5.7053   5.7141

          k = 0.3333-0.2592-0.2131 ( 12339 PWs)   bands (ev):

   -26.2988 -26.2961 -26.2945 -26.2928 -17.0799 -17.0627 -17.0138 -16.9970
   -12.8956 -12.8642 -12.8290 -12.8110 -12.7968 -12.7600 -12.7345 -12.7068
   -12.6494 -12.6363 -12.6123 -12.6036  -8.3792  -8.3542  -8.3479  -8.3404
    -8.3195  -8.3062  -8.2996  -8.2788  -8.2685  -8.2569  -8.2359  -8.2119
    -2.2526  -2.1783  -2.1011  -2.0653  -0.2948  -0.2362  -0.1771  -0.1328
     0.0284   0.1070   0.2094   0.2329   0.3058   0.3932   0.4406   0.4827
     2.4997   2.5403   2.6782   2.7750   2.8846   2.9262   3.0859   3.1190
     3.1571   3.2236   3.2397   3.3150   3.4114   3.4714   3.6436   3.6639
     3.8953   3.9606   4.0172   4.0415   5.0774   5.1467   5.2085   5.2485
     5.3181   5.3692   5.5256   5.5917   5.6536   5.6933   5.7053   5.7141

     highest occupied level (ev):     5.9020

!    total energy              =   -1805.60441837 Ry
     estimated scf accuracy    <          1.8E-11 Ry

     The total energy is the sum of the following terms:
     one-electron contribution =    -236.72203409 Ry
     hartree contribution      =     213.35322218 Ry
     xc contribution           =    -229.31257406 Ry
     ewald contribution        =    -634.09088827 Ry
     one-center paw contrib.   =    -918.83214413 Ry

     convergence has been achieved in  19 iterations

     Forces acting on atoms (cartesian axes, Ry/au):

     atom    1 type  1   force =     0.00000005    0.00001815    0.00043499
     atom    2 type  1   force =     0.00000003   -0.00001816   -0.00043496
     atom    3 type  1   force =    -0.00000001    0.00001807   -0.00043500
     atom    4 type  1   force =     0.00000000   -0.00001812    0.00043503
     atom    5 type  2   force =    -0.00000001    0.00064527   -0.00017124
     atom    6 type  2   force =    -0.00000001   -0.00064527    0.00017123
     atom    7 type  2   force =    -0.00000001    0.00064528    0.00017125
     atom    8 type  2   force =     0.00000000   -0.00064527   -0.00017123
     atom    9 type  3   force =     0.03075322    0.02249549    0.00309617
     atom   10 type  3   force =     0.03075322   -0.02249548   -0.00309617
     atom   11 type  3   force =    -0.03075323    0.02249553   -0.00309619
     atom   12 type  3   force =    -0.03075323   -0.02249552    0.00309617
     atom   13 type  3   force =    -0.03075324   -0.02249552   -0.00309618
     atom   14 type  3   force =    -0.03075325    0.02249552    0.00309618
     atom   15 type  3   force =     0.03075324   -0.02249550    0.00309617
     atom   16 type  3   force =     0.03075322    0.02249549   -0.00309618
     atom   17 type  3   force =     0.00000001   -0.01758024    0.03629164
     atom   18 type  3   force =     0.00000000    0.01758025   -0.03629165
     atom   19 type  3   force =     0.00000000   -0.01758025   -0.03629165
     atom   20 type  3   force =    -0.00000000    0.01758026    0.03629164
     atom   21 type  3   force =    -0.00000000   -0.02628682   -0.02959734
     atom   22 type  3   force =     0.00000000    0.02628683    0.02959732
     atom   23 type  3   force =    -0.00000000   -0.02628682    0.02959732
     atom   24 type  3   force =     0.00000000    0.02628683   -0.02959733

     Total force =     0.156417     Total SCF correction =     0.000014

     Writing output data file ./out/O4SSr.save/

     init_run     :     30.04s CPU     37.62s WALL (       1 calls)
     electrons    :   1245.75s CPU   1603.48s WALL (       1 calls)
     forces       :     19.39s CPU     23.03s WALL (       1 calls)

     Called by init_run:
     wfcinit      :     19.20s CPU     24.39s WALL (       1 calls)
     potinit      :      2.90s CPU      3.95s WALL (       1 calls)
     hinit0       :      4.26s CPU      5.15s WALL (       1 calls)

     Called by electrons:
     c_bands      :   1099.79s CPU   1416.08s WALL (      19 calls)
     sum_band     :    103.96s CPU    133.41s WALL (      19 calls)
     v_of_rho     :      5.20s CPU      6.84s WALL (      20 calls)
     newd         :     18.67s CPU     23.55s WALL (      20 calls)
     PAW_pot      :     17.93s CPU     23.55s WALL (      20 calls)
     mix_rho      :      1.02s CPU      1.35s WALL (      19 calls)

     Called by c_bands:
     init_us_2    :      1.99s CPU      2.72s WALL (     280 calls)
     cegterg      :   1053.43s CPU   1357.72s WALL (     133 calls)

     Called by *egterg:
     cdiaghg      :     37.99s CPU     51.61s WALL (     532 calls)
     h_psi        :    439.10s CPU    566.51s WALL (     539 calls)
     s_psi        :    135.04s CPU    177.54s WALL (     539 calls)
     g_psi        :      0.66s CPU      0.86s WALL (     399 calls)

     Called by h_psi:
     h_psi:calbec :    170.40s CPU    213.35s WALL (     539 calls)
     vloc_psi     :    131.56s CPU    171.97s WALL (     539 calls)
     add_vuspsi   :    136.57s CPU    180.46s WALL (     539 calls)

     General routines
     calbec       :    236.86s CPU    296.09s WALL (     700 calls)
     fft          :      8.16s CPU      9.99s WALL (     269 calls)
     ffts         :      0.20s CPU      0.24s WALL (      39 calls)
     fftw         :    142.27s CPU    187.79s WALL (   75532 calls)
     interpolate  :      0.42s CPU      0.51s WALL (      20 calls)

     Parallel routines
     fft_scatt_xy :     10.76s CPU     15.01s WALL (   75840 calls)
     fft_scatt_yz :     94.95s CPU    126.74s WALL (   75840 calls)

     PWSCF        :  21m37.14s CPU  27m47.43s WALL


   This run was terminated on:  18:52: 8   3Jul2026            

=------------------------------------------------------------------------------=
   JOB DONE.
=------------------------------------------------------------------------------=
