
     Program PWSCF v.6.7MaX starts on  1Jul2026 at  3:35:42 

     This program is part of the open-source Quantum ESPRESSO suite
     for quantum simulation of materials; please cite
         "P. Giannozzi et al., J. Phys.:Condens. Matter 21 395502 (2009);
         "P. Giannozzi et al., J. Phys.:Condens. Matter 29 465901 (2017);
          URL http://www.quantum-espresso.org", 
     in publications or presentations arising from this work. More details at
     http://www.quantum-espresso.org/quote

     Parallel version (MPI), running on     8 processors

     MPI processes distributed on     1 nodes
     K-points division:     npool     =       2
     R & G space division:  proc/nbgrp/npool/nimage =       4
     Waiting for input...
     Reading input from standard input

     Current dimensions of program PWSCF are:
     Max number of different atomic species (ntypx) = 10
     Max number of k-points (npk) =  40000
     Max angular momentum in pseudopotentials (lmaxx) =  3
     file O.pbe-n-kjpaw_psl.0.1.UPF: wavefunction(s)  2P renormalized

     Subspace diagonalization in iterative solution of the eigenvalue problem:
     one sub-group per band group will be used
     scalapack distributed-memory algorithm (size of sub-group:  2*  2 procs)

     Message from routine setup:
     using ibrav=0 with symmetry is DISCOURAGED, use correct ibrav instead

     Parallelization info
     --------------------
     sticks:   dense  smooth     PW     G-vecs:    dense   smooth      PW
     Min         612     303     90                23105     8166    1329
     Max         613     304     91                23108     8169    1331
     Sum        2451    1213    361                92427    32667    5319



     bravais-lattice index     =            0
     lattice parameter (alat)  =       9.7396  a.u.
     unit-cell volume          =     956.0255 (a.u.)^3
     number of atoms/cell      =           12
     number of atomic types    =            2
     number of electrons       =        96.00
     number of Kohn-Sham states=           58
     kinetic-energy cutoff     =      40.0000  Ry
     charge density cutoff     =     320.0000  Ry
     scf convergence threshold =      1.0E-08
     mixing beta               =       0.3000
     number of iterations used =            8  plain     mixing
     energy convergence thresh.=      1.0E-05
     force convergence thresh. =      1.0E-04
     press convergence thresh. =      5.0E-01
     Exchange-correlation= SLA  PW   PBX  PBC
                           (   1   4   3   4   0   0   0)
     nstep                     =           50


     celldm(1)=   9.739625  celldm(2)=   0.000000  celldm(3)=   0.000000
     celldm(4)=   0.000000  celldm(5)=   0.000000  celldm(6)=   0.000000

     crystal axes: (cart. coord. in units of alat)
               a(1) = (   0.986630   0.000000  -0.162976 )  
               a(2) = (   0.000000   1.014381   0.000000 )  
               a(3) = (  -0.001033   0.000000   1.034091 )  

     reciprocal axes: (cart. coord. in units 2 pi/alat)
               b(1) = (  1.013718 -0.000000  0.001013 )  
               b(2) = ( -0.000000  0.985823 -0.000000 )  
               b(3) = (  0.159765 -0.000000  0.967192 )  


     PseudoPot. # 1 for Zr read from file:
     /data/pseudopotentials/zr_pbe_v1.uspp.F.UPF
     MD5 check sum: 5db81b1e868ab7776c4564c113de050b
     Pseudo is Ultrasoft + core correction, Zval = 12.0
     Generated by new atomic code, or converted to UPF format
     Using radial grid of  887 points,  6 beta functions with: 
                l(1) =   0
                l(2) =   0
                l(3) =   1
                l(4) =   1
                l(5) =   2
                l(6) =   2
     Q(r) pseudized with  6 coefficients,  rinner =    1.200   1.200   1.200
                                                       1.200   1.200

     PseudoPot. # 2 for O  read from file:
     /data/pseudopotentials/O.pbe-n-kjpaw_psl.0.1.UPF
     MD5 check sum: 833c495a5d0f9b75bf046115549bffff
     Pseudo is Projector augmented-wave + core cor, Zval =  6.0
     Generated using &quot;atomic&quot; code by A. Dal Corso  v.6.3
     Shape of augmentation charge: BESSEL
     Using radial grid of 1095 points,  4 beta functions with: 
                l(1) =   0
                l(2) =   0
                l(3) =   1
                l(4) =   1
     Q(r) pseudized with 0 coefficients 


     atomic species   valence    mass     pseudopotential
        Zr            12.00    91.22400     Zr( 1.00)
        O              6.00    15.99900     O ( 1.00)

      4 Sym. Ops., with inversion, found ( 2 have fractional translation)



   Cartesian axes

     site n.     atom                  positions (alat units)
         1           Zr  tau(   1) = (   0.7131986   0.9716286   0.6994038  )
         2           Zr  tau(   2) = (   0.7137151   0.5499433   0.1823582  )
         3           Zr  tau(   3) = (   0.2718819   0.4644379   0.6887568  )
         4           Zr  tau(   4) = (   0.2723984   0.0427527   0.1717112  )
         5           O   tau(   5) = (   0.0674116   0.1686795   0.8613159  )
         6           O   tau(   6) = (   0.0679281   0.3385111   0.3442703  )
         7           O   tau(   7) = (   0.5433121   0.2611225  -0.0676254  )
         8           O   tau(   8) = (   0.4428015   0.7683131   0.4216948  )
         9           O   tau(   9) = (   0.5427956   0.2460682   0.4494202  )
        10           O   tau(  10) = (   0.4422850   0.7532588   0.9387404  )
        11           O   tau(  11) = (   0.9176689   0.6758701   0.5268447  )
        12           O   tau(  12) = (   0.9181854   0.8457018   0.0097991  )

     number of k points=    30  Gaussian smearing, width (Ry)=  0.0050
                       cart. coord. in units 2pi/alat
        k(    1) = (   0.0000000   0.0000000   0.0000000), wk =   0.0312500
        k(    2) = (   0.0399413   0.0000000   0.2417981), wk =   0.0625000
        k(    3) = (  -0.0798827   0.0000000  -0.4835961), wk =   0.0312500
        k(    4) = (   0.0000000   0.2464557   0.0000000), wk =   0.0625000
        k(    5) = (   0.0399413   0.2464557   0.2417981), wk =   0.1250000
        k(    6) = (  -0.0798827   0.2464557  -0.4835961), wk =   0.0625000
        k(    7) = (   0.0000000  -0.4929113   0.0000000), wk =   0.0312500
        k(    8) = (   0.0399413  -0.4929113   0.2417981), wk =   0.0625000
        k(    9) = (  -0.0798827  -0.4929113  -0.4835961), wk =   0.0312500
        k(   10) = (   0.2534296   0.0000000   0.0002532), wk =   0.0625000
        k(   11) = (   0.2933710   0.0000000   0.2420512), wk =   0.0625000
        k(   12) = (   0.1735469   0.0000000  -0.4833430), wk =   0.0625000
        k(   13) = (   0.2134883   0.0000000  -0.2415449), wk =   0.0625000
        k(   14) = (   0.2534296   0.2464557   0.0002532), wk =   0.1250000
        k(   15) = (   0.2933710   0.2464557   0.2420512), wk =   0.1250000
        k(   16) = (   0.1735469   0.2464557  -0.4833430), wk =   0.1250000
        k(   17) = (   0.2134883   0.2464557  -0.2415449), wk =   0.1250000
        k(   18) = (   0.2534296  -0.4929113   0.0002532), wk =   0.0625000
        k(   19) = (   0.2933710  -0.4929113   0.2420512), wk =   0.0625000
        k(   20) = (   0.1735469  -0.4929113  -0.4833430), wk =   0.0625000
        k(   21) = (   0.2134883  -0.4929113  -0.2415449), wk =   0.0625000
        k(   22) = (  -0.5068592   0.0000000  -0.0005063), wk =   0.0312500
        k(   23) = (  -0.4669179   0.0000000   0.2412918), wk =   0.0625000
        k(   24) = (  -0.5867419   0.0000000  -0.4841025), wk =   0.0312500
        k(   25) = (  -0.5068592   0.2464557  -0.0005063), wk =   0.0625000
        k(   26) = (  -0.4669179   0.2464557   0.2412918), wk =   0.1250000
        k(   27) = (  -0.5867419   0.2464557  -0.4841025), wk =   0.0625000
        k(   28) = (  -0.5068592  -0.4929113  -0.0005063), wk =   0.0312500
        k(   29) = (  -0.4669179  -0.4929113   0.2412918), wk =   0.0625000
        k(   30) = (  -0.5867419  -0.4929113  -0.4841025), wk =   0.0312500

     Dense  grid:    92427 G-vectors     FFT dimensions: (  60,  60,  60)

     Smooth grid:    32667 G-vectors     FFT dimensions: (  40,  40,  48)

     Estimated max dynamical RAM per process >      73.11 MB

     Estimated total dynamical RAM >     584.84 MB

     Check: negative core charge=   -0.000005

     Initial potential from superposition of free atoms

     starting charge   95.99139, renormalised to   96.00000

     negative rho (up, down):  2.441E-01 0.000E+00
     Starting wfcs are   84 randomized atomic wfcs
     Checking if some PAW data can be deallocated... 

     total cpu time spent up to now is        7.4 secs

     Self-consistent Calculation

     iteration #  1     ecut=    40.00 Ry     beta= 0.30
     Davidson diagonalization with overlap
     ethr =  1.00E-02,  avg # of iterations =  2.0

     negative rho (up, down):  2.486E-01 0.000E+00

     total cpu time spent up to now is       16.8 secs

     total energy              =    -731.01919741 Ry
     estimated scf accuracy    <       4.38626295 Ry

     iteration #  2     ecut=    40.00 Ry     beta= 0.30
     Davidson diagonalization with overlap
     ethr =  4.57E-03,  avg # of iterations =  2.0

     negative rho (up, down):  2.537E-01 0.000E+00

     total cpu time spent up to now is       27.6 secs

     total energy              =    -731.74039879 Ry
     estimated scf accuracy    <       0.16435173 Ry

     iteration #  3     ecut=    40.00 Ry     beta= 0.30
     Davidson diagonalization with overlap
     ethr =  1.71E-04,  avg # of iterations =  5.0

     negative rho (up, down):  2.569E-01 0.000E+00

     total cpu time spent up to now is       42.8 secs

     total energy              =    -731.77006863 Ry
     estimated scf accuracy    <       0.10742869 Ry

     iteration #  4     ecut=    40.00 Ry     beta= 0.30
     Davidson diagonalization with overlap
     ethr =  1.12E-04,  avg # of iterations =  3.0

     negative rho (up, down):  2.612E-01 0.000E+00

     total cpu time spent up to now is       54.4 secs

     total energy              =    -731.79584972 Ry
     estimated scf accuracy    <       0.07140252 Ry

     iteration #  5     ecut=    40.00 Ry     beta= 0.30
     Davidson diagonalization with overlap
     ethr =  7.44E-05,  avg # of iterations =  2.0

     negative rho (up, down):  2.612E-01 0.000E+00

     total cpu time spent up to now is       64.0 secs

     total energy              =    -731.79840252 Ry
     estimated scf accuracy    <       0.00700678 Ry

     iteration #  6     ecut=    40.00 Ry     beta= 0.30
     Davidson diagonalization with overlap
     ethr =  7.30E-06,  avg # of iterations =  5.4

     negative rho (up, down):  2.614E-01 0.000E+00

     total cpu time spent up to now is       77.7 secs

     total energy              =    -731.80063560 Ry
     estimated scf accuracy    <       0.00026777 Ry

     iteration #  7     ecut=    40.00 Ry     beta= 0.30
     Davidson diagonalization with overlap
     ethr =  2.79E-07,  avg # of iterations =  4.5

     negative rho (up, down):  2.614E-01 0.000E+00

     total cpu time spent up to now is       89.9 secs

     total energy              =    -731.80051800 Ry
     estimated scf accuracy    <       0.00039948 Ry

     iteration #  8     ecut=    40.00 Ry     beta= 0.30
     Davidson diagonalization with overlap
     ethr =  2.79E-07,  avg # of iterations =  2.3

     negative rho (up, down):  2.614E-01 0.000E+00

     total cpu time spent up to now is      101.1 secs

     total energy              =    -731.80059966 Ry
     estimated scf accuracy    <       0.00000322 Ry

     iteration #  9     ecut=    40.00 Ry     beta= 0.30
     Davidson diagonalization with overlap
     ethr =  3.35E-09,  avg # of iterations =  4.0

     negative rho (up, down):  2.614E-01 0.000E+00

     total cpu time spent up to now is      115.9 secs

     total energy              =    -731.80060184 Ry
     estimated scf accuracy    <       0.00000084 Ry

     iteration # 10     ecut=    40.00 Ry     beta= 0.30
     Davidson diagonalization with overlap
     ethr =  8.71E-10,  avg # of iterations =  3.4

     negative rho (up, down):  2.614E-01 0.000E+00

     total cpu time spent up to now is      128.1 secs

     total energy              =    -731.80060213 Ry
     estimated scf accuracy    <       0.00000045 Ry

     iteration # 11     ecut=    40.00 Ry     beta= 0.30
     Davidson diagonalization with overlap
     ethr =  4.72E-10,  avg # of iterations =  2.0

     negative rho (up, down):  2.614E-01 0.000E+00

     total cpu time spent up to now is      137.8 secs

     total energy              =    -731.80060215 Ry
     estimated scf accuracy    <       0.00000007 Ry

     iteration # 12     ecut=    40.00 Ry     beta= 0.30
     Davidson diagonalization with overlap
     ethr =  7.73E-11,  avg # of iterations =  3.1

     negative rho (up, down):  2.614E-01 0.000E+00

     total cpu time spent up to now is      149.2 secs

     End of self-consistent calculation

          k = 0.0000 0.0000 0.0000 (  4055 PWs)   bands (ev):

   -37.0442 -36.9837 -36.9765 -36.9754 -15.6718 -15.6106 -15.6089 -15.2822
   -15.1904 -15.1384 -15.0794 -15.0476 -15.0084 -14.9846 -14.9373 -14.8618
    -7.0645  -6.0911  -5.9118  -5.8376  -5.3176  -5.2323  -5.0249  -4.9133
     5.5454   5.5509   6.0165   6.1536   6.1593   6.5124   7.2974   7.4520
     7.7288   7.9087   8.0003   8.0564   8.6508   8.7191   8.7415   8.7656
     8.9297   9.3705   9.4151   9.6968   9.9002  10.0083  10.3184  10.5102
    14.5351  14.8799  15.1766  15.4455  15.4932  15.9120  16.0566  16.3213
    16.3598  16.8790

          k = 0.0399 0.0000 0.2418 (  4068 PWs)   bands (ev):

   -37.0351 -36.9914 -36.9767 -36.9766 -15.6174 -15.5583 -15.5215 -15.3380
   -15.2781 -15.0934 -15.0904 -15.0691 -15.0162 -14.9795 -14.9500 -14.9476
    -6.8272  -6.0244  -5.8991  -5.8304  -5.3829  -5.3080  -5.1476  -4.9793
     5.6931   5.8345   6.1320   6.2874   6.5302   6.7320   7.1177   7.3819
     7.4257   7.8556   7.9878   8.1416   8.2888   8.5163   8.6161   8.8252
     9.0297   9.1356   9.3259   9.5849   9.8767   9.9504  10.1553  10.2847
    14.6071  14.9043  14.9356  15.3173  15.8343  15.9151  16.2935  16.3140
    16.5347  16.6197

          k =-0.0799 0.0000-0.4836 (  4078 PWs)   bands (ev):

   -37.0130 -37.0130 -36.9769 -36.9769 -15.4762 -15.4762 -15.4412 -15.4412
   -15.2805 -15.2805 -15.0472 -15.0472 -15.0328 -15.0328 -14.9707 -14.9707
    -6.2724  -6.2724  -5.8980  -5.8980  -5.3477  -5.3477  -5.1842  -5.1842
     6.0457   6.0457   6.4762   6.4762   6.8269   6.8269   7.1328   7.1328
     7.5072   7.5072   7.8087   7.8087   8.1865   8.1865   8.6893   8.6893
     9.0125   9.0125   9.5118   9.5118   9.7711   9.7711  10.0594  10.0594
    14.7635  14.7635  15.0356  15.0356  15.9677  15.9677  16.4368  16.4368
    16.5839  16.5839

          k = 0.0000 0.2465 0.0000 (  4074 PWs)   bands (ev):

   -37.0366 -36.9962 -36.9743 -36.9727 -15.6149 -15.5692 -15.5225 -15.2903
   -15.2347 -15.1530 -15.1292 -15.0908 -15.0146 -15.0099 -14.9637 -14.8727
    -6.8112  -6.0151  -5.8615  -5.7867  -5.3662  -5.3331  -5.1678  -5.0446
     5.7383   5.7519   6.0685   6.0916   6.4986   6.6231   7.1482   7.1806
     7.3330   7.7513   8.1512   8.1933   8.5170   8.5684   8.9334   8.9382
     9.0491   9.3427   9.5389   9.5847   9.6541   9.7775  10.2504  10.2967
    14.9263  15.0225  15.2216  15.2884  15.5742  15.6314  16.0776  16.2429
    16.3741  16.8542

          k = 0.0399 0.2465 0.2418 (  4087 PWs)   bands (ev):

   -37.0285 -36.9964 -36.9802 -36.9747 -15.5746 -15.5095 -15.4777 -15.3616
   -15.2782 -15.1684 -15.1332 -15.0676 -15.0307 -14.9950 -14.9765 -14.9141
    -6.6308  -6.0161  -5.8434  -5.8273  -5.4353  -5.3355  -5.2207  -5.0786
     5.9590   6.0363   6.0917   6.2914   6.6116   6.7695   6.9595   7.1994
     7.3951   7.8659   7.9623   8.0775   8.3208   8.5945   8.6490   8.8844
     9.0297   9.1550   9.2353   9.5090   9.7271   9.8445  10.0723  10.2008
    14.7651  14.9969  15.1158  15.3062  15.5098  15.8864  16.1334  16.2985
    16.4612  16.7058

          k =-0.0799 0.2465-0.4836 (  4082 PWs)   bands (ev):

   -37.0096 -37.0096 -36.9803 -36.9803 -15.4624 -15.4624 -15.4266 -15.4266
   -15.3034 -15.3034 -15.0821 -15.0821 -15.0116 -15.0116 -14.9682 -14.9682
    -6.1989  -6.1989  -5.9334  -5.9334  -5.3348  -5.3348  -5.2276  -5.2276
     6.1826   6.1826   6.5103   6.5103   6.8062   6.8062   7.1641   7.1641
     7.3277   7.3277   7.8170   7.8170   8.4902   8.4902   8.5797   8.5797
     8.8616   8.8616   9.5241   9.5241   9.7712   9.7712   9.9322   9.9322
    14.7856  14.7856  15.1518  15.1518  15.6947  15.6947  16.3657  16.3657
    16.6537  16.6537

          k = 0.0000-0.4929 0.0000 (  4096 PWs)   bands (ev):

   -37.0174 -37.0174 -36.9724 -36.9724 -15.5099 -15.5099 -15.3535 -15.3535
   -15.3007 -15.3007 -15.1107 -15.1107 -15.0707 -15.0707 -14.9092 -14.9092
    -6.2350  -6.2350  -5.7859  -5.7859  -5.4220  -5.4220  -5.2463  -5.2463
     5.8390   5.8390   6.3513   6.3513   6.7681   6.7681   6.9568   6.9568
     7.2614   7.2614   8.1151   8.1151   8.5245   8.5245   8.9118   8.9118
     9.2802   9.2802   9.5001   9.5001   9.6908   9.6908  10.0982  10.0982
    15.0297  15.0297  15.4079  15.4079  15.7447  15.7447  16.0078  16.0078
    16.5406  16.5406

          k = 0.0399-0.4929 0.2418 (  4094 PWs)   bands (ev):

   -37.0124 -37.0124 -36.9775 -36.9775 -15.4830 -15.4830 -15.3775 -15.3775
   -15.3171 -15.3171 -15.1081 -15.1081 -15.0383 -15.0383 -14.9331 -14.9331
    -6.1843  -6.1843  -5.8751  -5.8751  -5.3758  -5.3758  -5.2530  -5.2530
     6.0619   6.0619   6.3926   6.3926   6.7445   6.7445   7.1452   7.1452
     7.3664   7.3664   7.8765   7.8765   8.4154   8.4154   8.8576   8.8576
     9.0727   9.0727   9.4438   9.4438   9.7186   9.7186  10.0077  10.0077
    14.9633  14.9633  15.2091  15.2091  15.7244  15.7244  16.1431  16.1431
    16.5216  16.5216

          k =-0.0799-0.4929-0.4836 (  4072 PWs)   bands (ev):

   -37.0051 -37.0051 -36.9848 -36.9848 -15.4385 -15.4385 -15.4231 -15.4231
   -15.3174 -15.3174 -15.1163 -15.1163 -15.0038 -15.0038 -14.9607 -14.9607
    -6.0542  -6.0542  -6.0376  -6.0376  -5.2990  -5.2990  -5.2961  -5.2961
     6.3872   6.3872   6.4012   6.4012   6.9408   6.9408   6.9481   6.9481
     7.7085   7.7085   7.7768   7.7768   8.1227   8.1227   8.4509   8.4509
     9.0414   9.0414   9.6222   9.6222   9.6400   9.6400   9.8843   9.8843
    14.8748  14.8748  15.0303  15.0303  15.7020  15.7020  16.2645  16.2645
    16.6295  16.6299

          k = 0.2534 0.0000 0.0003 (  4072 PWs)   bands (ev):

   -37.0351 -36.9860 -36.9856 -36.9729 -15.5959 -15.5834 -15.5438 -15.3179
   -15.1623 -15.1469 -15.1274 -15.0980 -15.0109 -15.0098 -14.9583 -14.9134
    -6.8266  -5.9460  -5.9308  -5.8668  -5.2594  -5.2581  -5.2022  -5.0669
     5.6534   5.7886   5.9555   6.1435   6.1700   6.6529   7.1744   7.2466
     7.6687   7.7078   8.1478   8.2640   8.2782   8.6119   8.8951   8.9808
     9.1631   9.2657   9.4102   9.7062   9.8445   9.9531  10.0189  10.4735
    14.4900  14.7753  15.0641  15.2859  15.8002  15.8376  15.9553  16.2202
    16.6776  16.8388

          k = 0.2934 0.0000 0.2421 (  4075 PWs)   bands (ev):

   -37.0219 -36.9962 -36.9899 -36.9719 -15.5005 -15.4865 -15.4863 -15.3917
   -15.2516 -15.1803 -15.1485 -15.0820 -15.0284 -15.0154 -14.9678 -14.9657
    -6.5402  -5.8950  -5.8805  -5.8100  -5.4130  -5.4012  -5.2922  -5.1334
     5.7692   6.0837   6.2352   6.3032   6.4590   6.6959   7.2775   7.3036
     7.5228   7.6125   7.6213   7.9181   8.3307   8.5922   8.9006   9.0788
     9.0976   9.1747   9.2488   9.4073   9.6028   9.8376  10.1172  10.3859
    14.3541  14.7366  15.0260  15.4126  15.6498  15.8749  16.2124  16.3212
    16.6222  16.8627

          k = 0.1735 0.0000-0.4833 (  4086 PWs)   bands (ev):

   -37.0160 -36.9998 -36.9901 -36.9738 -15.5382 -15.4549 -15.4053 -15.3908
   -15.3323 -15.3079 -15.1193 -15.0847 -14.9920 -14.9856 -14.9602 -14.9364
    -6.2813  -6.1097  -5.8948  -5.8283  -5.4373  -5.3432  -5.2531  -5.2324
     6.0678   6.0781   6.3789   6.4371   6.5987   6.8097   6.9150   7.3448
     7.5064   7.6038   7.7449   7.9671   8.2650   8.3346   8.7181   8.8194
     8.8711   9.2110   9.2974   9.6072   9.6736   9.8295  10.0102  10.1281
    14.4745  14.5881  15.1760  15.2255  15.7484  15.8794  16.1426  16.3849
    16.3941  16.8096

          k = 0.2135 0.0000-0.2415 (  4079 PWs)   bands (ev):

   -37.0325 -36.9872 -36.9808 -36.9792 -15.6029 -15.5796 -15.5129 -15.3800
   -15.1923 -15.1686 -15.1255 -15.0941 -14.9996 -14.9886 -14.9603 -14.8665
    -6.7253  -5.9849  -5.9161  -5.8853  -5.3163  -5.2101  -5.2062  -5.1275
     5.7785   6.0029   6.0083   6.1368   6.3176   6.9338   6.9397   7.1941
     7.3160   7.9833   8.0289   8.3002   8.4885   8.5606   8.6548   9.0148
     9.1222   9.2208   9.3212   9.5777   9.6351   9.8805  10.0097  10.3569
    14.6652  14.7038  15.0470  15.3748  15.6270  15.8350  15.8768  16.1409
    16.5708  16.7753

          k = 0.2534 0.2465 0.0003 (  4075 PWs)   bands (ev):

   -37.0287 -36.9964 -36.9804 -36.9742 -15.5866 -15.5202 -15.5014 -15.3559
   -15.2386 -15.1795 -15.1104 -15.0997 -15.0333 -14.9883 -14.9659 -14.9091
    -6.6451  -5.9589  -5.8671  -5.8310  -5.4284  -5.2753  -5.2029  -5.1587
     5.6726   6.0636   6.1274   6.2988   6.4655   6.6396   7.0381   7.2179
     7.5406   7.7297   7.7452   8.2905   8.4352   8.5890   8.8081   8.9679
     9.0641   9.3127   9.4617   9.5235   9.7155   9.8299   9.9399  10.2217
    14.6241  14.8751  15.1506  15.3750  15.6888  15.7843  16.0466  16.2370
    16.4694  16.5071

          k = 0.2934 0.2465 0.2421 (  4088 PWs)   bands (ev):

   -37.0170 -36.9979 -36.9891 -36.9758 -15.5228 -15.4937 -15.4713 -15.3321
   -15.2812 -15.2753 -15.1144 -15.0558 -15.0296 -15.0066 -14.9845 -14.9421
    -6.4127  -6.0020  -5.9268  -5.8162  -5.3647  -5.3517  -5.3206  -5.1747
     5.8477   6.2715   6.3679   6.4156   6.6068   6.8634   7.0134   7.1005
     7.4564   7.5784   7.8496   8.0303   8.3628   8.5826   8.6886   8.8109
     9.0359   9.1911   9.3666   9.4194   9.4968   9.8028   9.8477  10.2145
    14.4188  14.9425  15.0495  15.3743  15.5765  15.7871  16.1328  16.2796
    16.4722  16.7921

          k = 0.1735 0.2465-0.4833 (  4092 PWs)   bands (ev):

   -37.0125 -36.9983 -36.9916 -36.9773 -15.5807 -15.5330 -15.4561 -15.4113
   -15.2624 -15.2521 -15.0799 -15.0359 -14.9987 -14.9858 -14.9623 -14.9385
    -6.3411  -6.1166  -6.0430  -5.8379  -5.3877  -5.3738  -5.1947  -5.0820
     6.1073   6.3160   6.3671   6.5152   6.6694   6.7894   6.9917   7.2732
     7.4460   7.5404   7.8183   8.1405   8.2260   8.4757   8.5055   8.8144
     8.8546   9.0721   9.2854   9.4546   9.5918   9.7727   9.8971  10.0750
    14.4895  14.7392  15.1327  15.2447  15.6030  15.8282  16.0354  16.2808
    16.4673  16.7026

          k = 0.2135 0.2465-0.2415 (  4078 PWs)   bands (ev):

   -37.0266 -36.9957 -36.9803 -36.9771 -15.6297 -15.5509 -15.5279 -15.3367
   -15.2839 -15.1621 -15.1090 -15.0695 -15.0150 -14.9611 -14.9521 -14.8783
    -6.6307  -6.0700  -5.9134  -5.8391  -5.4020  -5.3635  -5.1133  -5.0431
     5.8641   6.1278   6.1823   6.3152   6.4885   6.8079   6.9209   7.2094
     7.3462   7.6979   7.9194   8.3610   8.4340   8.6466   8.7474   8.9212
     9.0257   9.1569   9.3585   9.4362   9.6364   9.7019   9.9786  10.1613
    14.7390  14.8673  15.1609  15.2344  15.5144  15.7468  15.9784  16.2680
    16.4356  16.6441

          k = 0.2534-0.4929 0.0003 (  4076 PWs)   bands (ev):

   -37.0129 -37.0129 -36.9769 -36.9769 -15.5166 -15.5166 -15.3943 -15.3943
   -15.3069 -15.3069 -15.0772 -15.0772 -15.0236 -15.0236 -14.9364 -14.9364
    -6.2248  -6.2248  -5.7943  -5.7943  -5.4529  -5.4529  -5.2167  -5.2167
     5.9468   5.9468   6.5011   6.5011   6.7233   6.7233   7.0516   7.0516
     7.5066   7.5066   7.8692   7.8692   8.5375   8.5375   8.6588   8.6588
     9.2443   9.2443   9.4809   9.4809   9.6834   9.6834   9.9232   9.9232
    14.8549  14.8549  15.2581  15.2581  15.9168  15.9168  16.0535  16.0535
    16.3477  16.3477

          k = 0.2934-0.4929 0.2421 (  4092 PWs)   bands (ev):

   -37.0061 -37.0061 -36.9838 -36.9838 -15.5069 -15.5069 -15.4262 -15.4262
   -15.2776 -15.2776 -15.0696 -15.0696 -15.0169 -15.0169 -14.9600 -14.9600
    -6.1317  -6.1317  -5.9673  -5.9673  -5.3544  -5.3544  -5.2328  -5.2328
     6.1418   6.1418   6.5396   6.5396   6.7501   6.7501   7.2181   7.2181
     7.5986   7.5986   7.7068   7.7068   8.4867   8.4867   8.5980   8.5980
     9.0251   9.0251   9.3572   9.3572   9.5913   9.5913   9.9309   9.9309
    14.7590  14.7590  15.2393  15.2393  15.6967  15.6967  16.0711  16.0711
    16.4815  16.4815

          k = 0.1735-0.4929-0.4833 (  4086 PWs)   bands (ev):

   -37.0042 -37.0042 -36.9856 -36.9856 -15.5820 -15.5820 -15.4956 -15.4956
   -15.1773 -15.1773 -15.0458 -15.0458 -14.9960 -14.9960 -14.9463 -14.9463
    -6.2910  -6.2910  -6.0019  -6.0019  -5.3157  -5.3157  -5.0782  -5.0782
     6.3379   6.3379   6.5426   6.5426   6.6715   6.6715   7.1326   7.1326
     7.6170   7.6170   7.9409   7.9409   8.2588   8.2588   8.5988   8.5988
     8.9639   8.9639   9.3553   9.3553   9.5606   9.5606   9.9171   9.9171
    14.6578  14.6578  15.2855  15.2855  15.5109  15.5109  16.0977  16.0977
    16.5792  16.5792

          k = 0.2135-0.4929-0.2415 (  4082 PWs)   bands (ev):

   -37.0118 -37.0118 -36.9780 -36.9780 -15.6031 -15.6031 -15.4553 -15.4553
   -15.2087 -15.2087 -15.0576 -15.0576 -15.0053 -15.0053 -14.9108 -14.9108
    -6.3491  -6.3491  -5.8938  -5.8938  -5.3732  -5.3732  -5.0731  -5.0731
     6.0739   6.0739   6.4986   6.4986   6.7514   6.7514   6.9955   6.9955
     7.4212   7.4212   8.0313   8.0313   8.3810   8.3810   8.8394   8.8394
     9.1724   9.1724   9.4350   9.4350   9.5324   9.5324   9.9353   9.9353
    14.7783  14.7783  15.3176  15.3176  15.6661  15.6661  15.9635  15.9635
    16.5901  16.5902

          k =-0.5069 0.0000-0.0005 (  4096 PWs)   bands (ev):

   -37.0192 -37.0016 -36.9877 -36.9712 -15.5790 -15.4419 -15.3575 -15.3566
   -15.3538 -15.2262 -15.1201 -15.1118 -15.0310 -15.0048 -14.9805 -14.9512
    -6.4757  -5.9482  -5.8903  -5.7228  -5.6129  -5.2922  -5.2068  -5.1710
     5.5237   6.0238   6.1228   6.3072   6.4033   6.5078   7.0647   7.2629
     7.4362   7.6356   8.0136   8.0278   8.4189   8.7814   8.9495   8.9628
     9.0874   9.2414   9.2792   9.6435   9.8177   9.9449  10.1085  10.4328
    14.1579  15.0531  15.1359  15.2590  15.6859  15.7142  15.9636  16.1332
    16.8689  16.9392

          k =-0.4669 0.0000 0.2413 (  4077 PWs)   bands (ev):

   -37.0164 -36.9954 -36.9942 -36.9738 -15.5585 -15.4449 -15.4062 -15.4014
   -15.3025 -15.2562 -15.1747 -15.0826 -15.0041 -14.9906 -14.9775 -14.9169
    -6.3728  -5.9733  -5.8624  -5.7364  -5.5475  -5.3282  -5.3254  -5.1920
     5.8670   6.0288   6.2489   6.2735   6.3781   6.5557   6.9496   7.3593
     7.4121   7.7426   7.9131   8.2459   8.2531   8.6765   8.8336   9.0158
     9.0812   9.2194   9.3781   9.4196   9.7026   9.7212   9.9691  10.4248
    14.2124  14.7507  15.1901  15.3547  15.6372  15.7879  15.9649  16.0414
    16.6782  16.9381

          k =-0.5867 0.0000-0.4841 (  4098 PWs)   bands (ev):

   -37.0068 -37.0068 -36.9830 -36.9830 -15.5204 -15.5204 -15.3944 -15.3944
   -15.2797 -15.2797 -15.1660 -15.1660 -14.9977 -14.9977 -14.9008 -14.9008
    -6.1366  -6.1366  -5.7953  -5.7953  -5.4178  -5.4178  -5.3282  -5.3282
     6.0768   6.0768   6.4144   6.4144   6.7397   6.7397   6.8979   6.8979
     7.2639   7.2639   8.1985   8.1985   8.5737   8.5737   8.8267   8.8267
     9.2032   9.2032   9.3079   9.3079   9.6139   9.6139  10.0554  10.0554
    14.3654  14.3654  15.4026  15.4026  15.6067  15.6067  16.0705  16.0705
    16.5989  16.5989

          k =-0.5069 0.2465-0.0005 (  4084 PWs)   bands (ev):

   -37.0150 -37.0025 -36.9869 -36.9753 -15.5666 -15.4715 -15.4079 -15.3947
   -15.3274 -15.2422 -15.0945 -15.0724 -15.0227 -14.9968 -14.9672 -14.9486
    -6.4177  -5.9411  -5.8651  -5.8160  -5.5794  -5.3677  -5.2106  -5.1507
     5.8143   6.1163   6.1880   6.3596   6.5066   6.8078   7.0195   7.4127
     7.4403   7.6330   7.9466   8.1258   8.3642   8.4578   8.5842   8.7510
     9.0368   9.3862   9.4109   9.4764   9.6830   9.8735   9.8960  10.1582
    14.4514  14.7177  15.2055  15.3832  15.7734  15.7878  16.0158  16.1366
    16.2815  16.6644

          k =-0.4669 0.2465 0.2413 (  4088 PWs)   bands (ev):

   -37.0128 -36.9990 -36.9906 -36.9773 -15.5901 -15.5324 -15.4946 -15.4153
   -15.2696 -15.1833 -15.0879 -15.0483 -15.0117 -14.9819 -14.9576 -14.9261
    -6.4042  -6.0154  -5.9712  -5.9195  -5.4052  -5.3438  -5.1857  -5.1113
     6.0487   6.1130   6.2671   6.4132   6.5260   6.7842   7.1268   7.1887
     7.3265   7.6570   8.0611   8.1409   8.4821   8.5282   8.6501   8.8593
     8.9661   9.1698   9.2259   9.3597   9.5167   9.7572   9.9014  10.1690
    14.3860  14.8508  14.9284  15.4538  15.6303  15.7267  15.9492  16.1252
    16.4612  16.7025

          k =-0.5867 0.2465-0.4841 (  4096 PWs)   bands (ev):

   -37.0051 -37.0051 -36.9847 -36.9847 -15.5859 -15.5859 -15.5157 -15.5157
   -15.1513 -15.1513 -15.0862 -15.0862 -14.9956 -14.9956 -14.9079 -14.9079
    -6.2718  -6.2718  -5.9933  -5.9933  -5.2616  -5.2616  -5.1555  -5.1555
     6.1538   6.1538   6.5124   6.5124   6.6831   6.6831   6.9834   6.9834
     7.6699   7.6699   8.0537   8.0537   8.3325   8.3325   8.6819   8.6819
     9.1262   9.1262   9.1864   9.1864   9.7622   9.7622   9.8926   9.8926
    14.4409  14.4409  15.3152  15.3152  15.4909  15.4909  16.1625  16.1625
    16.4260  16.4260

          k =-0.5069-0.4929-0.0005 (  4080 PWs)   bands (ev):

   -37.0069 -37.0069 -36.9830 -36.9830 -15.5330 -15.5330 -15.4263 -15.4263
   -15.2781 -15.2781 -15.0862 -15.0862 -14.9851 -14.9851 -14.9467 -14.9467
    -6.2148  -6.2148  -5.8028  -5.8028  -5.4759  -5.4759  -5.1947  -5.1947
     6.2514   6.2514   6.5215   6.5215   6.6408   6.6408   6.9940   6.9940
     7.6749   7.6749   7.9497   7.9497   8.4841   8.4841   8.7261   8.7261
     8.9973   8.9973   9.1578   9.1578   9.6083   9.6083   9.9415   9.9415
    14.8077  14.8077  15.1310  15.1310  15.8970  15.8970  16.0607  16.0607
    16.2973  16.2973

          k =-0.4669-0.4929 0.2413 (  4080 PWs)   bands (ev):

   -37.0052 -37.0052 -36.9846 -36.9846 -15.5988 -15.5988 -15.5112 -15.5112
   -15.1649 -15.1649 -15.0488 -15.0488 -14.9807 -14.9807 -14.9363 -14.9363
    -6.3020  -6.3020  -6.0019  -6.0019  -5.2716  -5.2716  -5.1119  -5.1119
     6.3334   6.3334   6.4979   6.4979   6.6262   6.6262   7.0449   7.0449
     7.8058   7.8058   8.0241   8.0241   8.1428   8.1428   8.7801   8.7801
     9.0667   9.0667   9.2647   9.2647   9.5077   9.5077   9.8122   9.8122
    14.7187  14.7187  15.1451  15.1451  15.6925  15.6925  15.9889  15.9889
    16.3926  16.3926

          k =-0.5867-0.4929-0.4841 (  4092 PWs)   bands (ev):

   -37.0031 -37.0031 -36.9866 -36.9866 -15.6352 -15.6352 -15.5816 -15.5816
   -15.0815 -15.0815 -15.0100 -15.0100 -14.9953 -14.9953 -14.9223 -14.9223
    -6.3781  -6.3781  -6.1247  -6.1247  -5.1475  -5.1475  -5.0363  -5.0363
     6.2698   6.2698   6.5616   6.5616   6.7477   6.7477   7.1267   7.1267
     7.8251   7.8251   7.9067   7.9067   8.3148   8.3148   8.4310   8.4310
     9.0448   9.0448   9.3209   9.3209   9.5056   9.5056   9.8369   9.8369
    14.6227  14.6227  15.1490  15.1490  15.5184  15.5184  15.8651  15.8652
    16.6994  16.7002

     the Fermi energy is    13.6843 ev

!    total energy              =    -731.80060217 Ry
     estimated scf accuracy    <          1.0E-09 Ry
     smearing contrib. (-TS)   =      -0.00000000 Ry
     internal energy E=F+TS    =    -731.80060217 Ry

     The total energy is F=E-TS. E is the sum of the following terms:
     one-electron contribution =    -131.43108875 Ry
     hartree contribution      =     123.00749698 Ry
     xc contribution           =    -131.37240312 Ry
     ewald contribution        =    -515.90541689 Ry
     one-center paw contrib.   =     -76.09919040 Ry

     convergence has been achieved in  12 iterations

     negative rho (up, down):  2.614E-01 0.000E+00

     Forces acting on atoms (cartesian axes, Ry/au):

     atom    1 type  1   force =    -0.00078363   -0.00110533   -0.00076360
     atom    2 type  1   force =    -0.00078363    0.00110533   -0.00076360
     atom    3 type  1   force =     0.00078363   -0.00110533    0.00076360
     atom    4 type  1   force =     0.00078363    0.00110533    0.00076360
     atom    5 type  2   force =    -0.00094260    0.00026840   -0.00093493
     atom    6 type  2   force =    -0.00094260   -0.00026840   -0.00093493
     atom    7 type  2   force =     0.00101009    0.00033485    0.00043030
     atom    8 type  2   force =    -0.00101009    0.00033485   -0.00043030
     atom    9 type  2   force =     0.00101009   -0.00033485    0.00043030
     atom   10 type  2   force =    -0.00101009   -0.00033485   -0.00043030
     atom   11 type  2   force =     0.00094260    0.00026840    0.00093493
     atom   12 type  2   force =     0.00094260   -0.00026840    0.00093493

     Total force =     0.004721     Total SCF correction =     0.000074


     Computing stress (Cartesian axis) and pressure


     negative rho (up, down):  2.614E-01 0.000E+00
          total   stress  (Ry/bohr**3)                   (kbar)     P=       -3.12
  -0.00001978   0.00000000   0.00000045           -2.91        0.00        0.07
   0.00000000  -0.00002273   0.00000000            0.00       -3.34        0.00
   0.00000045   0.00000000  -0.00002119            0.07        0.00       -3.12


     BFGS Geometry Optimization
     Energy error            =      0.0E+00
     Gradient error          =      1.1E-03
     Cell gradient error     =      2.3E-05


     number of scf cycles    =   1
     number of bfgs steps    =   0

     enthalpy new            =    -731.8006021747 Ry

     new trust radius        =       0.0035133418 bohr
     new conv_thr            =       0.0000000100 Ry

     new unit-cell volume =    954.50399 a.u.^3 (   141.44290 Ang^3 )
     density =      5.78650 g/cm^3

CELL_PARAMETERS (angstrom)
   5.082555390   0.000000000  -0.839474749
   0.000000000   5.225138420   0.000000000
  -0.005260989   0.000000000   5.326869751

ATOMIC_POSITIONS (angstrom)
Zr            3.6736259520        5.0043321766        3.6024466392
Zr            3.6762564467        2.8333754538        0.9390117639
Zr            1.4010379543        2.3917629664        3.5483832374
Zr            1.4036684489        0.2208062437        0.8849483620
O             0.3468186101        0.8690200830        4.4363691838
O             0.3494491047        1.7435491272        1.7729343084
O             2.7993695450        1.3452345237       -0.3480966656
O             2.2805553506        3.9578037338        2.1720567915
O             2.7967390503        1.2673346864        2.3153382098
O             2.2779248560        3.8799038966        4.8354916668
O             4.7278452962        3.4815892931        2.7144606928
O             4.7304757909        4.3561183373        0.0510258175



     Writing output data file ./out/O2Zr.save/
     NEW-OLD atomic charge density approx. for the potential

     Check: negative core charge=   -0.000005

     negative rho (up, down):  2.610E-01 0.000E+00
     extrapolated charge   95.84699, renormalised to   96.00000

     total cpu time spent up to now is      164.2 secs

     Self-consistent Calculation

     iteration #  1     ecut=    40.00 Ry     beta= 0.30
     Davidson diagonalization with overlap
     ethr =  1.00E-06,  avg # of iterations =  2.0

     negative rho (up, down):  2.615E-01 0.000E+00

     total cpu time spent up to now is      177.0 secs

     total energy              =    -731.80026114 Ry
     estimated scf accuracy    <       0.00028516 Ry

     iteration #  2     ecut=    40.00 Ry     beta= 0.30
     Davidson diagonalization with overlap
     ethr =  2.97E-07,  avg # of iterations =  3.0

     negative rho (up, down):  2.615E-01 0.000E+00

     total cpu time spent up to now is      191.3 secs

     total energy              =    -731.80065347 Ry
     estimated scf accuracy    <       0.00027905 Ry

     iteration #  3     ecut=    40.00 Ry     beta= 0.30
     Davidson diagonalization with overlap
     ethr =  2.91E-07,  avg # of iterations =  1.0

     negative rho (up, down):  2.615E-01 0.000E+00

     total cpu time spent up to now is      199.1 secs

     total energy              =    -731.80061528 Ry
     estimated scf accuracy    <       0.00010928 Ry

     iteration #  4     ecut=    40.00 Ry     beta= 0.30
     Davidson diagonalization with overlap
     ethr =  1.14E-07,  avg # of iterations =  2.0

     negative rho (up, down):  2.614E-01 0.000E+00

     total cpu time spent up to now is      209.7 secs

     total energy              =    -731.80063713 Ry
     estimated scf accuracy    <       0.00000341 Ry

     iteration #  5     ecut=    40.00 Ry     beta= 0.30
     Davidson diagonalization with overlap
     ethr =  3.55E-09,  avg # of iterations =  2.0

     negative rho (up, down):  2.614E-01 0.000E+00

     total cpu time spent up to now is      220.7 secs

     total energy              =    -731.80063499 Ry
     estimated scf accuracy    <       0.00000948 Ry

     iteration #  6     ecut=    40.00 Ry     beta= 0.30
     Davidson diagonalization with overlap
     ethr =  3.55E-09,  avg # of iterations =  2.0

     negative rho (up, down):  2.614E-01 0.000E+00

     total cpu time spent up to now is      231.2 secs

     total energy              =    -731.80063292 Ry
     estimated scf accuracy    <       0.00000423 Ry

     iteration #  7     ecut=    40.00 Ry     beta= 0.30
     Davidson diagonalization with overlap
     ethr =  3.55E-09,  avg # of iterations =  3.1

     negative rho (up, down):  2.614E-01 0.000E+00

     total cpu time spent up to now is      242.7 secs

     total energy              =    -731.80063435 Ry
     estimated scf accuracy    <       0.00000042 Ry

     iteration #  8     ecut=    40.00 Ry     beta= 0.30
     Davidson diagonalization with overlap
     ethr =  4.38E-10,  avg # of iterations =  2.0

     negative rho (up, down):  2.614E-01 0.000E+00

     total cpu time spent up to now is      252.1 secs

     total energy              =    -731.80063428 Ry
     estimated scf accuracy    <       0.00000030 Ry

     iteration #  9     ecut=    40.00 Ry     beta= 0.30
     Davidson diagonalization with overlap
     ethr =  3.12E-10,  avg # of iterations =  2.0

     negative rho (up, down):  2.614E-01 0.000E+00

     total cpu time spent up to now is      261.6 secs

     total energy              =    -731.80063428 Ry
     estimated scf accuracy    <       0.00000006 Ry

     iteration # 10     ecut=    40.00 Ry     beta= 0.30
     Davidson diagonalization with overlap
     ethr =  6.10E-11,  avg # of iterations =  2.0

     negative rho (up, down):  2.614E-01 0.000E+00

     total cpu time spent up to now is      272.0 secs

     End of self-consistent calculation

          k = 0.0000 0.0000 0.0000 (  4055 PWs)   bands (ev):

   -37.0125 -36.9514 -36.9442 -36.9431 -15.6453 -15.5846 -15.5824 -15.2533
   -15.1606 -15.1090 -15.0491 -15.0172 -14.9780 -14.9537 -14.9063 -14.8303
    -7.0474  -6.0729  -5.8941  -5.8179  -5.2943  -5.2067  -4.9979  -4.8869
     5.5603   5.5668   6.0338   6.1709   6.1766   6.5303   7.3193   7.4725
     7.7493   7.9284   8.0238   8.0774   8.6715   8.7397   8.7614   8.7862
     8.9506   9.3922   9.4354   9.7203   9.9225  10.0317  10.3422  10.5356
    14.5626  14.9095  15.2080  15.4788  15.5252  15.9446  16.0924  16.3521
    16.3953  16.9136

          k = 0.0400 0.0000 0.2419 (  4068 PWs)   bands (ev):

   -37.0033 -36.9592 -36.9444 -36.9444 -15.5908 -15.5318 -15.4943 -15.3096
   -15.2493 -15.0632 -15.0603 -15.0387 -14.9858 -14.9485 -14.9191 -14.9168
    -6.8090  -6.0063  -5.8813  -5.8098  -5.3594  -5.2830  -5.1216  -4.9531
     5.7091   5.8501   6.1494   6.3060   6.5471   6.7505   7.1391   7.4028
     7.4457   7.8765   8.0103   8.1624   8.3086   8.5351   8.6364   8.8440
     9.0507   9.1582   9.3485   9.6062   9.9005   9.9737  10.1787  10.3097
    14.6360  14.9342  14.9669  15.3486  15.8675  15.9476  16.3282  16.3470
    16.5703  16.6575

          k =-0.0799 0.0000-0.4839 (  4078 PWs)   bands (ev):

   -36.9810 -36.9810 -36.9446 -36.9446 -15.4491 -15.4491 -15.4134 -15.4134
   -15.2518 -15.2518 -15.0169 -15.0169 -15.0023 -15.0023 -14.9398 -14.9398
    -6.2521  -6.2521  -5.8803  -5.8803  -5.3229  -5.3229  -5.1591  -5.1591
     6.0616   6.0616   6.4947   6.4947   6.8470   6.8470   7.1532   7.1532
     7.5248   7.5248   7.8290   7.8290   8.2057   8.2057   8.7111   8.7111
     9.0338   9.0338   9.5348   9.5348   9.7933   9.7933  10.0837  10.0837
    14.7938  14.7938  15.0660  15.0660  16.0004  16.0004  16.4704  16.4704
    16.6221  16.6221

          k = 0.0000 0.2466 0.0000 (  4074 PWs)   bands (ev):

   -37.0048 -36.9640 -36.9421 -36.9404 -15.5879 -15.5423 -15.4959 -15.2615
   -15.2050 -15.1241 -15.0997 -15.0604 -14.9842 -14.9791 -14.9330 -14.8412
    -6.7929  -5.9960  -5.8434  -5.7672  -5.3406  -5.3091  -5.1422  -5.0192
     5.7532   5.7682   6.0862   6.1083   6.5153   6.6410   7.1675   7.2019
     7.3525   7.7713   8.1747   8.2147   8.5350   8.5899   8.9549   8.9614
     9.0696   9.3652   9.5606   9.6069   9.6778   9.8002  10.2739  10.3216
    14.9550  15.0510  15.2516  15.3203  15.6091  15.6656  16.1121  16.2748
    16.4094  16.8900

          k = 0.0400 0.2466 0.2419 (  4087 PWs)   bands (ev):

   -36.9966 -36.9643 -36.9480 -36.9424 -15.5477 -15.4826 -15.4502 -15.3336
   -15.2491 -15.1389 -15.1035 -15.0372 -15.0005 -14.9642 -14.9458 -14.8829
    -6.6118  -5.9975  -5.8249  -5.8073  -5.4107  -5.3107  -5.1959  -5.0532
     5.9751   6.0524   6.1088   6.3098   6.6287   6.7874   6.9777   7.2200
     7.4172   7.8858   7.9824   8.0985   8.3411   8.6148   8.6693   8.9068
     9.0519   9.1766   9.2568   9.5319   9.7499   9.8672  10.0956  10.2257
    14.7953  15.0253  15.1481  15.3377  15.5412  15.9204  16.1679  16.3317
    16.4971  16.7427

          k =-0.0799 0.2466-0.4839 (  4082 PWs)   bands (ev):

   -36.9776 -36.9776 -36.9481 -36.9481 -15.4353 -15.4353 -15.3987 -15.3987
   -15.2746 -15.2746 -15.0521 -15.0521 -14.9809 -14.9809 -14.9374 -14.9374
    -6.1786  -6.1786  -5.9148  -5.9148  -5.3105  -5.3105  -5.2028  -5.2028
     6.1995   6.1995   6.5289   6.5289   6.8248   6.8248   7.1831   7.1831
     7.3473   7.3473   7.8356   7.8356   8.5109   8.5109   8.6003   8.6003
     8.8843   8.8843   9.5469   9.5469   9.7938   9.7938   9.9558   9.9558
    14.8164  14.8164  15.1825  15.1825  15.7269  15.7269  16.4001  16.4001
    16.6907  16.6907

          k = 0.0000-0.4932 0.0000 (  4096 PWs)   bands (ev):

   -36.9855 -36.9855 -36.9401 -36.9401 -15.4822 -15.4822 -15.3255 -15.3255
   -15.2722 -15.2722 -15.0811 -15.0811 -15.0403 -15.0403 -14.8780 -14.8780
    -6.2146  -6.2146  -5.7669  -5.7669  -5.3980  -5.3980  -5.2217  -5.2217
     5.8552   5.8552   6.3674   6.3674   6.7857   6.7857   6.9757   6.9757
     7.2809   7.2809   8.1367   8.1367   8.5465   8.5465   8.9334   8.9334
     9.3040   9.3040   9.5223   9.5223   9.7141   9.7141  10.1212  10.1212
    15.0567  15.0567  15.4422  15.4422  15.7777  15.7777  16.0416  16.0416
    16.5758  16.5758

          k = 0.0400-0.4932 0.2419 (  4094 PWs)   bands (ev):

   -36.9804 -36.9804 -36.9452 -36.9452 -15.4555 -15.4555 -15.3498 -15.3498
   -15.2883 -15.2883 -15.0784 -15.0784 -15.0078 -15.0078 -14.9021 -14.9021
    -6.1640  -6.1640  -5.8556  -5.8556  -5.3519  -5.3519  -5.2285  -5.2285
     6.0788   6.0788   6.4094   6.4094   6.7628   6.7628   7.1627   7.1627
     7.3866   7.3866   7.8975   7.8975   8.4361   8.4361   8.8805   8.8805
     9.0943   9.0943   9.4662   9.4662   9.7415   9.7415  10.0313  10.0313
    14.9923  14.9923  15.2415  15.2415  15.7570  15.7570  16.1772  16.1772
    16.5574  16.5575

          k =-0.0799-0.4932-0.4839 (  4072 PWs)   bands (ev):

   -36.9730 -36.9730 -36.9526 -36.9526 -15.4113 -15.4113 -15.3955 -15.3955
   -15.2881 -15.2881 -15.0867 -15.0867 -14.9731 -14.9731 -14.9299 -14.9299
    -6.0349  -6.0349  -6.0171  -6.0171  -5.2755  -5.2755  -5.2714  -5.2714
     6.4065   6.4065   6.4187   6.4187   6.9571   6.9571   6.9661   6.9661
     7.7286   7.7286   7.7971   7.7971   8.1443   8.1443   8.4714   8.4714
     9.0619   9.0619   9.6467   9.6467   9.6627   9.6627   9.9072   9.9072
    14.9049  14.9049  15.0628  15.0628  15.7325  15.7325  16.2995  16.2995
    16.6666  16.6667

          k = 0.2536 0.0000 0.0003 (  4072 PWs)   bands (ev):

   -37.0034 -36.9538 -36.9534 -36.9407 -15.5693 -15.5566 -15.5173 -15.2886
   -15.1327 -15.1174 -15.0981 -15.0675 -14.9806 -14.9794 -14.9276 -14.8819
    -6.8085  -5.9268  -5.9128  -5.8470  -5.2346  -5.2334  -5.1767  -5.0413
     5.6703   5.8049   5.9721   6.1603   6.1856   6.6708   7.1958   7.2660
     7.6903   7.7307   8.1690   8.2861   8.2991   8.6332   8.9146   9.0009
     9.1827   9.2872   9.4309   9.7275   9.8667   9.9765  10.0450  10.4991
    14.5188  14.8042  15.0944  15.3166  15.8324  15.8704  15.9903  16.2567
    16.7120  16.8746

          k = 0.2935 0.0000 0.2422 (  4075 PWs)   bands (ev):

   -36.9900 -36.9640 -36.9578 -36.9396 -15.4738 -15.4591 -15.4590 -15.3632
   -15.2226 -15.1508 -15.1192 -15.0520 -14.9982 -14.9847 -14.9366 -14.9350
    -6.5211  -5.8759  -5.8611  -5.7909  -5.3877  -5.3765  -5.2682  -5.1082
     5.7853   6.1008   6.2520   6.3209   6.4755   6.7141   7.2981   7.3224
     7.5443   7.6337   7.6455   7.9367   8.3492   8.6148   8.9192   9.0999
     9.1211   9.1963   9.2692   9.4289   9.6250   9.8594  10.1421  10.4115
    14.3832  14.7655  15.0571  15.4441  15.6812  15.9072  16.2494  16.3556
    16.6568  16.9014

          k = 0.1736 0.0000-0.4836 (  4086 PWs)   bands (ev):

   -36.9840 -36.9678 -36.9579 -36.9416 -15.5109 -15.4274 -15.3767 -15.3632
   -15.3048 -15.2791 -15.0898 -15.0546 -14.9614 -14.9545 -14.9292 -14.9055
    -6.2611  -6.0897  -5.8757  -5.8101  -5.4131  -5.3186  -5.2285  -5.2073
     6.0843   6.0935   6.3981   6.4541   6.6168   6.8288   6.9345   7.3637
     7.5247   7.6228   7.7645   7.9874   8.2854   8.3559   8.7408   8.8440
     8.8915   9.2327   9.3197   9.6279   9.6955   9.8540  10.0353  10.1512
    14.5044  14.6160  15.2063  15.2580  15.7816  15.9122  16.1792  16.4179
    16.4291  16.8444

          k = 0.2136 0.0000-0.2417 (  4079 PWs)   bands (ev):

   -37.0007 -36.9550 -36.9486 -36.9470 -15.5759 -15.5527 -15.4863 -15.3514
   -15.1635 -15.1388 -15.0959 -15.0642 -14.9689 -14.9578 -14.9295 -14.8351
    -6.7067  -5.9665  -5.8973  -5.8654  -5.2927  -5.1842  -5.1808  -5.1023
     5.7948   6.0186   6.0257   6.1544   6.3336   6.9515   6.9603   7.2125
     7.3362   8.0054   8.0511   8.3201   8.5083   8.5844   8.6739   9.0343
     9.1457   9.2423   9.3436   9.6008   9.6566   9.9052  10.0325  10.3820
    14.6935  14.7334  15.0776  15.4055  15.6608  15.8694  15.9090  16.1758
    16.6069  16.8103

          k = 0.2536 0.2466 0.0003 (  4075 PWs)   bands (ev):

   -36.9969 -36.9643 -36.9482 -36.9419 -15.5598 -15.4932 -15.4745 -15.3270
   -15.2098 -15.1505 -15.0806 -15.0697 -15.0030 -14.9577 -14.9348 -14.8778
    -6.6264  -5.9393  -5.8490  -5.8115  -5.4037  -5.2503  -5.1782  -5.1333
     5.6892   6.0801   6.1431   6.3166   6.4824   6.6582   7.0574   7.2390
     7.5612   7.7500   7.7666   8.3103   8.4577   8.6098   8.8290   8.9877
     9.0859   9.3346   9.4834   9.5445   9.7394   9.8539   9.9625  10.2463
    14.6524  14.9042  15.1797  15.4078  15.7221  15.8165  16.0816  16.2735
    16.5038  16.5425

          k = 0.2935 0.2466 0.2422 (  4088 PWs)   bands (ev):

   -36.9850 -36.9657 -36.9569 -36.9436 -15.4958 -15.4667 -15.4438 -15.3028
   -15.2526 -15.2470 -15.0849 -15.0253 -14.9992 -14.9761 -14.9534 -14.9112
    -6.3933  -5.9829  -5.9074  -5.7965  -5.3398  -5.3274  -5.2962  -5.1497
     5.8643   6.2883   6.3858   6.4326   6.6251   6.8821   7.0313   7.1209
     7.4783   7.6000   7.8684   8.0513   8.3823   8.6035   8.7109   8.8300
     9.0570   9.2124   9.3890   9.4407   9.5192   9.8255   9.8716  10.2397
    14.4475  14.9715  15.0799  15.4054  15.6089  15.8209  16.1675  16.3145
    16.5086  16.8295

          k = 0.1736 0.2466-0.4836 (  4092 PWs)   bands (ev):

   -36.9805 -36.9662 -36.9595 -36.9451 -15.5538 -15.5060 -15.4285 -15.3837
   -15.2334 -15.2232 -15.0500 -15.0055 -14.9680 -14.9548 -14.9315 -14.9077
    -6.3218  -6.0974  -6.0236  -5.8188  -5.3634  -5.3495  -5.1698  -5.0566
     6.1239   6.3346   6.3841   6.5330   6.6869   6.8097   7.0097   7.2929
     7.4649   7.5598   7.8371   8.1600   8.2491   8.4954   8.5271   8.8348
     8.8758   9.0939   9.3090   9.4766   9.6141   9.7959   9.9211  10.0991
    14.5192  14.7677  15.1640  15.2755  15.6353  15.8619  16.0693  16.3156
    16.5021  16.7382

          k = 0.2136 0.2466-0.2417 (  4078 PWs)   bands (ev):

   -36.9947 -36.9635 -36.9481 -36.9449 -15.6030 -15.5243 -15.5005 -15.3085
   -15.2550 -15.1327 -15.0792 -15.0394 -14.9845 -14.9302 -14.9211 -14.8470
    -6.6121  -6.0507  -5.8940  -5.8206  -5.3775  -5.3389  -5.0882  -5.0173
     5.8803   6.1456   6.1997   6.3312   6.5049   6.8271   6.9398   7.2304
     7.3646   7.7179   7.9408   8.3815   8.4554   8.6678   8.7679   8.9418
     9.0474   9.1790   9.3812   9.4591   9.6585   9.7256  10.0014  10.1859
    14.7670  14.8976  15.1909  15.2654  15.5486  15.7802  16.0116  16.3023
    16.4705  16.6796

          k = 0.2536-0.4932 0.0003 (  4076 PWs)   bands (ev):

   -36.9810 -36.9810 -36.9446 -36.9446 -15.4893 -15.4893 -15.3663 -15.3663
   -15.2788 -15.2788 -15.0470 -15.0470 -14.9929 -14.9929 -14.9053 -14.9053
    -6.2049  -6.2049  -5.7754  -5.7754  -5.4289  -5.4289  -5.1914  -5.1914
     5.9635   5.9635   6.5176   6.5176   6.7419   6.7419   7.0719   7.0719
     7.5252   7.5252   7.8896   7.8896   8.5610   8.5610   8.6789   8.6789
     9.2673   9.2673   9.5022   9.5022   9.7061   9.7061   9.9465   9.9465
    14.8827  14.8827  15.2894  15.2894  15.9515  15.9515  16.0876  16.0876
    16.3831  16.3831

          k = 0.2935-0.4932 0.2422 (  4092 PWs)   bands (ev):

   -36.9741 -36.9741 -36.9516 -36.9516 -15.4797 -15.4797 -15.3987 -15.3987
   -15.2487 -15.2487 -15.0395 -15.0395 -14.9862 -14.9862 -14.9292 -14.9292
    -6.1118  -6.1118  -5.9482  -5.9482  -5.3301  -5.3301  -5.2081  -5.2081
     6.1599   6.1599   6.5571   6.5571   6.7679   6.7679   7.2375   7.2375
     7.6172   7.6172   7.7272   7.7272   8.5078   8.5078   8.6207   8.6207
     9.0457   9.0457   9.3786   9.3786   9.6135   9.6135   9.9552   9.9552
    14.7880  14.7880  15.2690  15.2690  15.7300  15.7300  16.1067  16.1067
    16.5177  16.5177

          k = 0.1736-0.4932-0.4836 (  4086 PWs)   bands (ev):

   -36.9721 -36.9721 -36.9535 -36.9535 -15.5551 -15.5551 -15.4686 -15.4686
   -15.1475 -15.1475 -15.0156 -15.0156 -14.9652 -14.9652 -14.9155 -14.9155
    -6.2720  -6.2720  -5.9828  -5.9828  -5.2909  -5.2909  -5.0530  -5.0530
     6.3574   6.3574   6.5602   6.5602   6.6890   6.6890   7.1501   7.1501
     7.6371   7.6371   7.9610   7.9610   8.2797   8.2797   8.6199   8.6199
     8.9839   8.9839   9.3781   9.3781   9.5830   9.5830   9.9414   9.9414
    14.6872  14.6872  15.3175  15.3175  15.5414  15.5414  16.1324  16.1324
    16.6158  16.6158

          k = 0.2136-0.4932-0.2417 (  4082 PWs)   bands (ev):

   -36.9798 -36.9798 -36.9458 -36.9458 -15.5763 -15.5763 -15.4279 -15.4279
   -15.1794 -15.1794 -15.0275 -15.0275 -14.9746 -14.9746 -14.8796 -14.8796
    -6.3300  -6.3300  -5.8748  -5.8748  -5.3490  -5.3490  -5.0475  -5.0475
     6.0906   6.0906   6.5153   6.5153   6.7717   6.7717   7.0140   7.0140
     7.4397   7.4397   8.0530   8.0530   8.4012   8.4012   8.8598   8.8598
     9.1944   9.1944   9.4581   9.4581   9.5552   9.5552   9.9589   9.9589
    14.8069  14.8069  15.3503  15.3503  15.6982  15.6982  15.9969  15.9969
    16.6254  16.6254

          k =-0.5071 0.0000-0.0005 (  4096 PWs)   bands (ev):

   -36.9874 -36.9695 -36.9555 -36.9389 -15.5523 -15.4151 -15.3290 -15.3281
   -15.3247 -15.1968 -15.0903 -15.0826 -15.0008 -14.9742 -14.9499 -14.9198
    -6.4566  -5.9300  -5.8705  -5.7024  -5.5879  -5.2677  -5.1834  -5.1453
     5.5398   6.0398   6.1391   6.3234   6.4202   6.5291   7.0845   7.2822
     7.4580   7.6547   8.0331   8.0514   8.4402   8.8056   8.9727   8.9839
     9.1055   9.2602   9.2990   9.6640   9.8390   9.9688  10.1359  10.4585
    14.1847  15.0830  15.1670  15.2895  15.7195  15.7471  15.9995  16.1660
    16.9066  16.9763

          k =-0.4672 0.0000 0.2414 (  4077 PWs)   bands (ev):

   -36.9845 -36.9632 -36.9620 -36.9415 -15.5315 -15.4170 -15.3775 -15.3741
   -15.2740 -15.2273 -15.1454 -15.0529 -14.9737 -14.9597 -14.9469 -14.8856
    -6.3533  -5.9539  -5.8433  -5.7161  -5.5229  -5.3039  -5.3010  -5.1674
     5.8835   6.0452   6.2648   6.2894   6.3950   6.5772   6.9678   7.3798
     7.4302   7.7643   7.9332   8.2666   8.2746   8.6997   8.8551   9.0377
     9.1033   9.2393   9.3985   9.4419   9.7248   9.7430   9.9949  10.4503
    14.2396  14.7802  15.2207  15.3884  15.6685  15.8216  15.9995  16.0746
    16.7131  16.9747

          k =-0.5870 0.0000-0.4844 (  4098 PWs)   bands (ev):

   -36.9748 -36.9748 -36.9508 -36.9508 -15.4928 -15.4928 -15.3663 -15.3663
   -15.2513 -15.2513 -15.1369 -15.1369 -14.9668 -14.9668 -14.8696 -14.8696
    -6.1166  -6.1166  -5.7757  -5.7757  -5.3938  -5.3938  -5.3036  -5.3036
     6.0924   6.0924   6.4336   6.4336   6.7568   6.7568   6.9161   6.9161
     7.2821   7.2821   8.2197   8.2197   8.5953   8.5953   8.8503   8.8503
     9.2256   9.2256   9.3302   9.3302   9.6354   9.6354  10.0798  10.0798
    14.3934  14.3934  15.4351  15.4351  15.6390  15.6390  16.1052  16.1052
    16.6331  16.6331

          k =-0.5071 0.2466-0.0005 (  4084 PWs)   bands (ev):

   -36.9832 -36.9704 -36.9547 -36.9430 -15.5399 -15.4439 -15.3798 -15.3674
   -15.2989 -15.2131 -15.0645 -15.0424 -14.9920 -14.9663 -14.9361 -14.9178
    -6.3986  -5.9218  -5.8468  -5.7954  -5.5552  -5.3436  -5.1861  -5.1247
     5.8312   6.1338   6.2038   6.3773   6.5231   6.8268   7.0414   7.4345
     7.4592   7.6547   7.9676   8.1452   8.3834   8.4772   8.6060   8.7709
     9.0593   9.4071   9.4310   9.4977   9.7081   9.8958   9.9200  10.1828
    14.4785  14.7464  15.2359  15.4151  15.8071  15.8199  16.0486  16.1738
    16.3183  16.6999

          k =-0.4672 0.2466 0.2414 (  4088 PWs)   bands (ev):

   -36.9809 -36.9668 -36.9584 -36.9450 -15.5634 -15.5054 -15.4671 -15.3876
   -15.2410 -15.1539 -15.0577 -15.0181 -14.9810 -14.9512 -14.9267 -14.8949
    -6.3852  -5.9954  -5.9523  -5.9005  -5.3809  -5.3195  -5.1605  -5.0859
     6.0666   6.1298   6.2831   6.4306   6.5424   6.8059   7.1457   7.2084
     7.3460   7.6782   8.0812   8.1606   8.5034   8.5481   8.6716   8.8794
     8.9869   9.1911   9.2485   9.3823   9.5393   9.7795   9.9254  10.1938
    14.4130  14.8806  14.9582  15.4856  15.6629  15.7598  15.9827  16.1611
    16.4968  16.7382

          k =-0.5870 0.2466-0.4844 (  4096 PWs)   bands (ev):

   -36.9731 -36.9731 -36.9525 -36.9525 -15.5589 -15.5589 -15.4887 -15.4887
   -15.1217 -15.1217 -15.0564 -15.0564 -14.9648 -14.9648 -14.8767 -14.8767
    -6.2525  -6.2525  -5.9745  -5.9745  -5.2367  -5.2367  -5.1305  -5.1305
     6.1705   6.1705   6.5314   6.5314   6.7010   6.7010   7.0013   7.0013
     7.6900   7.6900   8.0743   8.0743   8.3517   8.3517   8.7039   8.7039
     9.1479   9.1479   9.2083   9.2083   9.7853   9.7853   9.9167   9.9167
    14.4690  14.4690  15.3469  15.3469  15.5231  15.5231  16.1969  16.1969
    16.4608  16.4608

          k =-0.5071-0.4932-0.0005 (  4080 PWs)   bands (ev):

   -36.9749 -36.9749 -36.9507 -36.9507 -15.5061 -15.5061 -15.3983 -15.3983
   -15.2500 -15.2500 -15.0556 -15.0556 -14.9542 -14.9542 -14.9158 -14.9158
    -6.1954  -6.1954  -5.7841  -5.7841  -5.4519  -5.4519  -5.1688  -5.1688
     6.2693   6.2693   6.5387   6.5387   6.6596   6.6596   7.0148   7.0148
     7.6934   7.6934   7.9693   7.9693   8.5055   8.5055   8.7475   8.7475
     9.0200   9.0200   9.1790   9.1790   9.6291   9.6291   9.9651   9.9651
    14.8355  14.8355  15.1611  15.1611  15.9320  15.9320  16.0965  16.0965
    16.3315  16.3315

          k =-0.4672-0.4932 0.2414 (  4080 PWs)   bands (ev):

   -36.9731 -36.9731 -36.9524 -36.9524 -15.5722 -15.5722 -15.4841 -15.4841
   -15.1357 -15.1357 -15.0183 -15.0183 -14.9497 -14.9497 -14.9053 -14.9053
    -6.2830  -6.2830  -5.9833  -5.9833  -5.2471  -5.2471  -5.0861  -5.0861
     6.3509   6.3509   6.5166   6.5166   6.6452   6.6452   7.0637   7.0637
     7.8239   7.8239   8.0452   8.0452   8.1633   8.1633   8.8006   8.8006
     9.0880   9.0880   9.2873   9.2873   9.5294   9.5294   9.8361   9.8361
    14.7469  14.7469  15.1752  15.1752  15.7257  15.7257  16.0238  16.0238
    16.4282  16.4282

          k =-0.5870-0.4932-0.4844 (  4092 PWs)   bands (ev):

   -36.9710 -36.9710 -36.9545 -36.9545 -15.6087 -15.6087 -15.5551 -15.5551
   -15.0514 -15.0514 -14.9794 -14.9794 -14.9644 -14.9644 -14.8913 -14.8913
    -6.3596  -6.3596  -6.1066  -6.1066  -5.1220  -5.1220  -5.0107  -5.0107
     6.2883   6.2883   6.5797   6.5797   6.7676   6.7676   7.1442   7.1442
     7.8446   7.8446   7.9245   7.9245   8.3368   8.3368   8.4512   8.4512
     9.0666   9.0666   9.3428   9.3428   9.5279   9.5279   9.8610   9.8610
    14.6513  14.6513  15.1791  15.1791  15.5503  15.5503  15.8990  15.8990
    16.7353  16.7361

     the Fermi energy is    13.7211 ev

!    total energy              =    -731.80063428 Ry
     estimated scf accuracy    <          5.4E-09 Ry
     smearing contrib. (-TS)   =      -0.00000000 Ry
     internal energy E=F+TS    =    -731.80063428 Ry

     The total energy is F=E-TS. E is the sum of the following terms:
     one-electron contribution =    -131.00476796 Ry
     hartree contribution      =     122.88778821 Ry
     xc contribution           =    -131.38658831 Ry
     ewald contribution        =    -516.19821828 Ry
     one-center paw contrib.   =     -76.09884793 Ry

     convergence has been achieved in  10 iterations

     negative rho (up, down):  2.614E-01 0.000E+00

     Forces acting on atoms (cartesian axes, Ry/au):

     atom    1 type  1   force =    -0.00051023   -0.00087004   -0.00057089
     atom    2 type  1   force =    -0.00051023    0.00087004   -0.00057089
     atom    3 type  1   force =     0.00051023   -0.00087004    0.00057089
     atom    4 type  1   force =     0.00051023    0.00087004    0.00057089
     atom    5 type  2   force =    -0.00069468    0.00017942   -0.00083921
     atom    6 type  2   force =    -0.00069468   -0.00017942   -0.00083921
     atom    7 type  2   force =     0.00096677    0.00015795    0.00024206
     atom    8 type  2   force =    -0.00096677    0.00015795   -0.00024206
     atom    9 type  2   force =     0.00096677   -0.00015795    0.00024206
     atom   10 type  2   force =    -0.00096677   -0.00015795   -0.00024206
     atom   11 type  2   force =     0.00069468    0.00017942    0.00083921
     atom   12 type  2   force =     0.00069468   -0.00017942    0.00083921

     Total force =     0.003784     Total SCF correction =     0.000075


     Computing stress (Cartesian axis) and pressure


     negative rho (up, down):  2.614E-01 0.000E+00
          total   stress  (Ry/bohr**3)                   (kbar)     P=        0.91
   0.00000486   0.00000000   0.00000041            0.71        0.00        0.06
   0.00000000   0.00000812   0.00000000            0.00        1.19        0.00
   0.00000041   0.00000000   0.00000548            0.06        0.00        0.81

     Energy error            =      3.2E-05
     Gradient error          =      9.7E-04
     Cell gradient error     =      8.1E-06


     number of scf cycles    =   2
     number of bfgs steps    =   1

     enthalpy old            =    -731.8006021747 Ry
     enthalpy new            =    -731.8006342766 Ry

     CASE: enthalpy_new < enthalpy_old

     new trust radius        =       0.0019870949 bohr
     new conv_thr            =       0.0000000003 Ry

     new unit-cell volume =    954.40896 a.u.^3 (   141.42882 Ang^3 )
     density =      5.78708 g/cm^3

CELL_PARAMETERS (angstrom)
   5.082253608   0.000000000  -0.839346943
   0.000000000   5.225188265   0.000000000
  -0.005172883   0.000000000   5.326590258

ATOMIC_POSITIONS (angstrom)
Zr            3.6729928897        5.0036033483        3.6018004929
Zr            3.6755793312        2.8341790487        0.9385053638
Zr            1.4015013936        2.3910092160        3.5487379516
Zr            1.4040878351        0.2215849164        0.8854428225
O             0.3462391765        0.8691971416        4.4354210972
O             0.3488256180        1.7433969907        1.7721259681
O             2.8000216869        1.3454169345       -0.3477900140
O             2.2796454794        3.9580110668        2.1717382003
O             2.7974352453        1.2671771978        2.3155051151
O             2.2770590379        3.8797713302        4.8350333294
O             4.7282551067        3.4817912739        2.7151173473
O             4.7308415483        4.3559911231        0.0518222183



     Writing output data file ./out/O2Zr.save/
     NEW-OLD atomic charge density approx. for the potential

     Check: negative core charge=   -0.000005

     negative rho (up, down):  2.614E-01 0.000E+00
     extrapolated charge   95.99044, renormalised to   96.00000

     total cpu time spent up to now is      286.9 secs

     Self-consistent Calculation

     iteration #  1     ecut=    40.00 Ry     beta= 0.30
     Davidson diagonalization with overlap
     ethr =  1.00E-06,  avg # of iterations =  2.0

     Threshold (ethr) on eigenvalues was too large:
     Diagonalizing with lowered threshold

     Davidson diagonalization with overlap
     ethr =  4.78E-09,  avg # of iterations =  4.3

     negative rho (up, down):  2.615E-01 0.000E+00

     total cpu time spent up to now is      314.3 secs

     total energy              =    -731.80065169 Ry
     estimated scf accuracy    <       0.00000347 Ry

     iteration #  2     ecut=    40.00 Ry     beta= 0.30
     Davidson diagonalization with overlap
     ethr =  3.62E-09,  avg # of iterations =  2.0

     negative rho (up, down):  2.615E-01 0.000E+00

     total cpu time spent up to now is      326.2 secs

     total energy              =    -731.80065250 Ry
     estimated scf accuracy    <       0.00000228 Ry

     iteration #  3     ecut=    40.00 Ry     beta= 0.30
     Davidson diagonalization with overlap
     ethr =  2.38E-09,  avg # of iterations =  1.0

     negative rho (up, down):  2.615E-01 0.000E+00

     total cpu time spent up to now is      334.2 secs

     total energy              =    -731.80065226 Ry
     estimated scf accuracy    <       0.00000074 Ry

     iteration #  4     ecut=    40.00 Ry     beta= 0.30
     Davidson diagonalization with overlap
     ethr =  7.70E-10,  avg # of iterations =  2.0

     negative rho (up, down):  2.615E-01 0.000E+00

     total cpu time spent up to now is      345.2 secs

     total energy              =    -731.80065237 Ry
     estimated scf accuracy    <       0.00000015 Ry

     iteration #  5     ecut=    40.00 Ry     beta= 0.30
     Davidson diagonalization with overlap
     ethr =  1.52E-10,  avg # of iterations =  3.0

     negative rho (up, down):  2.615E-01 0.000E+00

     total cpu time spent up to now is      356.4 secs

     total energy              =    -731.80065243 Ry
     estimated scf accuracy    <       0.00000007 Ry

     iteration #  6     ecut=    40.00 Ry     beta= 0.30
     Davidson diagonalization with overlap
     ethr =  7.31E-11,  avg # of iterations =  1.0

     negative rho (up, down):  2.615E-01 0.000E+00

     total cpu time spent up to now is      364.4 secs

     total energy              =    -731.80065241 Ry
     estimated scf accuracy    <       0.00000003 Ry

     iteration #  7     ecut=    40.00 Ry     beta= 0.30
     Davidson diagonalization with overlap
     ethr =  3.12E-11,  avg # of iterations =  3.0

     negative rho (up, down):  2.615E-01 0.000E+00

     total cpu time spent up to now is      376.0 secs

     total energy              =    -731.80065242 Ry
     estimated scf accuracy    <       0.00000001 Ry

     iteration #  8     ecut=    40.00 Ry     beta= 0.30
     Davidson diagonalization with overlap
     ethr =  1.33E-11,  avg # of iterations =  1.0

     negative rho (up, down):  2.615E-01 0.000E+00

     total cpu time spent up to now is      383.9 secs

     total energy              =    -731.80065242 Ry
     estimated scf accuracy    <          3.2E-09 Ry

     iteration #  9     ecut=    40.00 Ry     beta= 0.30
     Davidson diagonalization with overlap
     ethr =  3.37E-12,  avg # of iterations =  2.0

     negative rho (up, down):  2.615E-01 0.000E+00

     total cpu time spent up to now is      394.9 secs

     End of self-consistent calculation

          k = 0.0000 0.0000 0.0000 (  4055 PWs)   bands (ev):

   -37.0111 -36.9498 -36.9428 -36.9417 -15.6435 -15.5838 -15.5811 -15.2521
   -15.1588 -15.1081 -15.0477 -15.0157 -14.9767 -14.9524 -14.9049 -14.8288
    -7.0468  -6.0727  -5.8948  -5.8176  -5.2918  -5.2039  -4.9953  -4.8855
     5.5607   5.5676   6.0361   6.1725   6.1770   6.5318   7.3217   7.4735
     7.7502   7.9279   8.0276   8.0793   8.6704   8.7399   8.7609   8.7864
     8.9512   9.3938   9.4341   9.7219   9.9234  10.0322  10.3438  10.5400
    14.5623  14.9102  15.2108  15.4825  15.5264  15.9455  16.0980  16.3503
    16.3985  16.9135

          k = 0.0400 0.0000 0.2419 (  4068 PWs)   bands (ev):

   -37.0019 -36.9577 -36.9430 -36.9429 -15.5892 -15.5308 -15.4930 -15.3086
   -15.2480 -15.0618 -15.0589 -15.0373 -14.9845 -14.9470 -14.9176 -14.9154
    -6.8085  -6.0065  -5.8826  -5.8101  -5.3566  -5.2793  -5.1188  -4.9514
     5.7095   5.8506   6.1509   6.3085   6.5473   6.7511   7.1414   7.4047
     7.4474   7.8774   8.0137   8.1630   8.3092   8.5346   8.6367   8.8421
     9.0512   9.1599   9.3490   9.6060   9.9018   9.9743  10.1802  10.3141
    14.6368  14.9352  14.9697  15.3496  15.8697  15.9484  16.3317  16.3479
    16.5726  16.6622

          k =-0.0799 0.0000-0.4839 (  4078 PWs)   bands (ev):

   -36.9796 -36.9796 -36.9432 -36.9432 -15.4481 -15.4481 -15.4120 -15.4120
   -15.2504 -15.2504 -15.0155 -15.0155 -15.0008 -15.0008 -14.9383 -14.9383
    -6.2520  -6.2520  -5.8817  -5.8817  -5.3194  -5.3194  -5.1566  -5.1566
     6.0615   6.0615   6.4960   6.4960   6.8495   6.8495   7.1564   7.1564
     7.5240   7.5240   7.8307   7.8307   8.2044   8.2044   8.7127   8.7127
     9.0341   9.0341   9.5377   9.5377   9.7916   9.7916  10.0867  10.0867
    14.7957  14.7957  15.0673  15.0673  16.0013  16.0013  16.4713  16.4713
    16.6277  16.6277

          k = 0.0000 0.2466 0.0000 (  4074 PWs)   bands (ev):

   -37.0033 -36.9625 -36.9406 -36.9389 -15.5861 -15.5409 -15.4950 -15.2604
   -15.2031 -15.1234 -15.0987 -15.0588 -14.9829 -14.9778 -14.9316 -14.8398
    -6.7922  -5.9958  -5.8444  -5.7677  -5.3373  -5.3058  -5.1394  -5.0179
     5.7524   5.7689   6.0882   6.1091   6.5153   6.6422   7.1687   7.2041
     7.3533   7.7731   8.1773   8.2160   8.5334   8.5907   8.9563   8.9649
     9.0679   9.3657   9.5603   9.6078   9.6810   9.8005  10.2752  10.3254
    14.9546  15.0500  15.2516  15.3231  15.6139  15.6697  16.1154  16.2744
    16.4124  16.8919

          k = 0.0400 0.2466 0.2419 (  4087 PWs)   bands (ev):

   -36.9952 -36.9627 -36.9466 -36.9409 -15.5461 -15.4816 -15.4488 -15.3327
   -15.2473 -15.1376 -15.1024 -15.0358 -14.9993 -14.9628 -14.9444 -14.8815
    -6.6112  -5.9975  -5.8262  -5.8080  -5.4072  -5.3068  -5.1936  -5.0516
     5.9756   6.0522   6.1106   6.3117   6.6283   6.7887   6.9781   7.2218
     7.4205   7.8870   7.9828   8.1001   8.3413   8.6151   8.6689   8.9091
     9.0530   9.1770   9.2573   9.5331   9.7508   9.8673  10.0973  10.2291
    14.7973  15.0241  15.1516  15.3392  15.5420  15.9236  16.1710  16.3328
    16.5003  16.7465

          k =-0.0799 0.2466-0.4839 (  4082 PWs)   bands (ev):

   -36.9761 -36.9761 -36.9467 -36.9467 -15.4344 -15.4344 -15.3972 -15.3972
   -15.2728 -15.2728 -15.0509 -15.0509 -14.9796 -14.9796 -14.9360 -14.9360
    -6.1784  -6.1784  -5.9154  -5.9154  -5.3076  -5.3076  -5.2004  -5.2004
     6.2003   6.2003   6.5305   6.5305   6.8266   6.8266   7.1836   7.1836
     7.3492   7.3492   7.8352   7.8352   8.5114   8.5114   8.6005   8.6005
     8.8859   8.8859   9.5489   9.5489   9.7936   9.7936   9.9579   9.9579
    14.8189  14.8189  15.1836  15.1836  15.7282  15.7282  16.4020  16.4020
    16.6952  16.6952

          k = 0.0000-0.4932 0.0000 (  4096 PWs)   bands (ev):

   -36.9840 -36.9840 -36.9387 -36.9387 -15.4803 -15.4803 -15.3247 -15.3247
   -15.2710 -15.2710 -15.0800 -15.0800 -15.0389 -15.0389 -14.8765 -14.8765
    -6.2141  -6.2141  -5.7680  -5.7680  -5.3949  -5.3949  -5.2191  -5.2191
     5.8548   5.8548   6.3673   6.3673   6.7861   6.7861   6.9770   6.9770
     7.2829   7.2829   8.1382   8.1382   8.5481   8.5481   8.9333   8.9333
     9.3071   9.3071   9.5228   9.5228   9.7166   9.7166  10.1222  10.1222
    15.0535  15.0535  15.4472  15.4472  15.7797  15.7797  16.0446  16.0446
    16.5780  16.5780

          k = 0.0400-0.4932 0.2419 (  4094 PWs)   bands (ev):

   -36.9789 -36.9789 -36.9438 -36.9438 -15.4539 -15.4539 -15.3490 -15.3490
   -15.2865 -15.2865 -15.0774 -15.0774 -15.0065 -15.0065 -14.9007 -14.9007
    -6.1636  -6.1636  -5.8560  -5.8560  -5.3494  -5.3494  -5.2260  -5.2260
     6.0791   6.0791   6.4101   6.4101   6.7639   6.7639   7.1624   7.1624
     7.3887   7.3887   7.8993   7.8993   8.4364   8.4364   8.8817   8.8817
     9.0955   9.0955   9.4676   9.4676   9.7425   9.7425  10.0332  10.0332
    14.9917  14.9917  15.2448  15.2448  15.7592  15.7592  16.1797  16.1797
    16.5608  16.5608

          k =-0.0799-0.4932-0.4839 (  4072 PWs)   bands (ev):

   -36.9715 -36.9715 -36.9513 -36.9513 -15.4103 -15.4103 -15.3946 -15.3946
   -15.2855 -15.2855 -15.0858 -15.0858 -14.9717 -14.9717 -14.9286 -14.9286
    -6.0348  -6.0348  -6.0167  -6.0167  -5.2739  -5.2739  -5.2685  -5.2685
     6.4090   6.4090   6.4205   6.4205   6.9562   6.9562   6.9668   6.9668
     7.7285   7.7285   7.7987   7.7987   8.1458   8.1458   8.4723   8.4723
     9.0605   9.0605   9.6490   9.6490   9.6649   9.6649   9.9080   9.9080
    14.9058  14.9058  15.0669  15.0669  15.7324  15.7324  16.3023  16.3023
    16.6715  16.6715

          k = 0.2536 0.0000 0.0002 (  4072 PWs)   bands (ev):

   -37.0020 -36.9522 -36.9520 -36.9392 -15.5681 -15.5550 -15.5164 -15.2863
   -15.1316 -15.1162 -15.0974 -15.0657 -14.9794 -14.9783 -14.9262 -14.8803
    -6.8081  -5.9268  -5.9133  -5.8464  -5.2325  -5.2308  -5.1740  -5.0396
     5.6714   5.8052   5.9739   6.1613   6.1854   6.6717   7.1987   7.2667
     7.6928   7.7342   8.1694   8.2885   8.3017   8.6348   8.9132   9.0000
     9.1816   9.2869   9.4292   9.7254   9.8675   9.9780  10.0496  10.5037
    14.5199  14.8049  15.0953  15.3169  15.8331  15.8720  15.9950  16.2613
    16.7139  16.8771

          k = 0.2935 0.0000 0.2422 (  4075 PWs)   bands (ev):

   -36.9886 -36.9625 -36.9563 -36.9381 -15.4730 -15.4580 -15.4575 -15.3612
   -15.2215 -15.1490 -15.1180 -15.0507 -14.9971 -14.9833 -14.9351 -14.9337
    -6.5210  -5.8765  -5.8617  -5.7918  -5.3846  -5.3729  -5.2653  -5.1061
     5.7863   6.1011   6.2522   6.3230   6.4758   6.7148   7.2994   7.3221
     7.5490   7.6365   7.6497   7.9368   8.3488   8.6169   8.9170   9.1011
     9.1240   9.1969   9.2672   9.4298   9.6243   9.8575  10.1454  10.4161
    14.3852  14.7661  15.0592  15.4450  15.6811  15.9080  16.2539  16.3582
    16.6591  16.9070

          k = 0.1737 0.0000-0.4836 (  4086 PWs)   bands (ev):

   -36.9825 -36.9663 -36.9564 -36.9401 -15.5092 -15.4263 -15.3744 -15.3623
   -15.3043 -15.2776 -15.0888 -15.0534 -14.9600 -14.9529 -14.9277 -14.9041
    -6.2607  -6.0903  -5.8760  -5.8115  -5.4102  -5.3152  -5.2256  -5.2049
     6.0845   6.0926   6.4006   6.4553   6.6175   6.8311   6.9358   7.3652
     7.5237   7.6238   7.7661   7.9877   8.2875   8.3578   8.7427   8.8478
     8.8901   9.2341   9.3205   9.6259   9.6936   9.8576  10.0397  10.1523
    14.5068  14.6157  15.2062  15.2610  15.7841  15.9137  16.1840  16.4186
    16.4315  16.8460

          k = 0.2136 0.0000-0.2417 (  4079 PWs)   bands (ev):

   -36.9993 -36.9535 -36.9471 -36.9455 -15.5741 -15.5513 -15.4855 -15.3497
   -15.1627 -15.1373 -15.0947 -15.0632 -14.9676 -14.9563 -14.9282 -14.8336
    -6.7062  -5.9667  -5.8976  -5.8652  -5.2907  -5.1812  -5.1779  -5.1006
     5.7953   6.0188   6.0265   6.1567   6.3332   6.9520   6.9626   7.2130
     7.3382   8.0089   8.0529   8.3213   8.5087   8.5870   8.6725   9.0320
     9.1490   9.2421   9.3437   9.6018   9.6569   9.9078  10.0332  10.3858
    14.6934  14.7348  15.0786  15.4058  15.6643  15.8733  15.9107  16.1790
    16.6098  16.8119

          k = 0.2536 0.2466 0.0002 (  4075 PWs)   bands (ev):

   -36.9954 -36.9628 -36.9467 -36.9404 -15.5583 -15.4919 -15.4734 -15.3250
   -15.2087 -15.1495 -15.0792 -15.0684 -15.0017 -14.9563 -14.9333 -14.8763
    -6.6260  -5.9394  -5.8500  -5.8114  -5.4008  -5.2474  -5.1754  -5.1313
     5.6900   6.0805   6.1423   6.3182   6.4833   6.6599   7.0585   7.2410
     7.5628   7.7511   7.7688   8.3106   8.4602   8.6111   8.8300   8.9868
     9.0861   9.3345   9.4834   9.5444   9.7419   9.8564   9.9630  10.2499
    14.6525  14.9044  15.1790  15.4107  15.7245  15.8174  16.0858  16.2781
    16.5062  16.5446

          k = 0.2935 0.2466 0.2422 (  4088 PWs)   bands (ev):

   -36.9836 -36.9642 -36.9555 -36.9421 -15.4946 -15.4658 -15.4426 -15.3004
   -15.2513 -15.2461 -15.0839 -15.0237 -14.9979 -14.9747 -14.9519 -14.9099
    -6.3932  -5.9831  -5.9077  -5.7974  -5.3363  -5.3252  -5.2928  -5.1476
     5.8654   6.2887   6.3873   6.4331   6.6260   6.8835   7.0309   7.1229
     7.4815   7.6036   7.8682   8.0533   8.3816   8.6039   8.7128   8.8293
     9.0577   9.2118   9.3906   9.4401   9.5206   9.8255   9.8740  10.2438
    14.4487  14.9713  15.0815  15.4059  15.6102  15.8232  16.1711  16.3167
    16.5132  16.8340

          k = 0.1737 0.2466-0.4836 (  4092 PWs)   bands (ev):

   -36.9790 -36.9646 -36.9581 -36.9437 -15.5522 -15.5049 -15.4268 -15.3827
   -15.2318 -15.2219 -15.0491 -15.0041 -14.9666 -14.9533 -14.9301 -14.9064
    -6.3211  -6.0976  -6.0235  -5.8201  -5.3602  -5.3463  -5.1675  -5.0547
     6.1246   6.3368   6.3845   6.5342   6.6879   6.8124   7.0098   7.2947
     7.4648   7.5612   7.8364   8.1596   8.2527   8.4948   8.5289   8.8339
     8.8767   9.0949   9.3107   9.4770   9.6139   9.7979   9.9237  10.1013
    14.5214  14.7675  15.1658  15.2768  15.6370  15.8650  16.0722  16.3176
    16.5051  16.7407

          k = 0.2136 0.2466-0.2417 (  4078 PWs)   bands (ev):

   -36.9932 -36.9620 -36.9467 -36.9434 -15.6013 -15.5233 -15.4987 -15.3076
   -15.2534 -15.1314 -15.0781 -15.0382 -14.9831 -14.9288 -14.9197 -14.8455
    -6.6115  -6.0502  -5.8943  -5.8219  -5.3743  -5.3356  -5.0861  -5.0154
     5.8809   6.1470   6.2014   6.3309   6.5043   6.8294   6.9411   7.2330
     7.3648   7.7184   7.9428   8.3826   8.4571   8.6690   8.7673   8.9415
     9.0477   9.1803   9.3824   9.4610   9.6579   9.7284  10.0022  10.1893
    14.7662  14.8993  15.1916  15.2668  15.5533  15.7828  16.0142  16.3045
    16.4732  16.6811

          k = 0.2536-0.4932 0.0002 (  4076 PWs)   bands (ev):

   -36.9795 -36.9795 -36.9432 -36.9432 -15.4877 -15.4877 -15.3650 -15.3650
   -15.2779 -15.2779 -15.0457 -15.0457 -14.9915 -14.9915 -14.9039 -14.9039
    -6.2047  -6.2047  -5.7765  -5.7765  -5.4261  -5.4261  -5.1883  -5.1883
     5.9638   5.9638   6.5180   6.5180   6.7428   6.7428   7.0738   7.0738
     7.5256   7.5256   7.8905   7.8905   8.5640   8.5640   8.6791   8.6791
     9.2701   9.2701   9.5016   9.5016   9.7079   9.7079   9.9478   9.9478
    14.8812  14.8812  15.2910  15.2910  15.9552  15.9552  16.0904  16.0904
    16.3860  16.3860

          k = 0.2935-0.4932 0.2422 (  4092 PWs)   bands (ev):

   -36.9726 -36.9726 -36.9501 -36.9501 -15.4785 -15.4785 -15.3974 -15.3974
   -15.2470 -15.2470 -15.0383 -15.0383 -14.9847 -14.9847 -14.9278 -14.9278
    -6.1115  -6.1115  -5.9489  -5.9489  -5.3270  -5.3270  -5.2059  -5.2059
     6.1613   6.1613   6.5586   6.5586   6.7684   6.7684   7.2390   7.2390
     7.6168   7.6168   7.7281   7.7281   8.5091   8.5091   8.6226   8.6226
     9.0461   9.0461   9.3791   9.3791   9.6139   9.6139   9.9579   9.9579
    14.7882  14.7882  15.2688  15.2688  15.7331  15.7331  16.1106  16.1106
    16.5216  16.5216

          k = 0.1737-0.4932-0.4836 (  4086 PWs)   bands (ev):

   -36.9706 -36.9706 -36.9521 -36.9521 -15.5536 -15.5536 -15.4676 -15.4676
   -15.1458 -15.1458 -15.0145 -15.0145 -14.9638 -14.9638 -14.9142 -14.9142
    -6.2711  -6.2711  -5.9833  -5.9833  -5.2880  -5.2880  -5.0515  -5.0515
     6.3606   6.3606   6.5619   6.5619   6.6898   6.6898   7.1496   7.1496
     7.6376   7.6376   7.9617   7.9617   8.2809   8.2809   8.6198   8.6198
     8.9829   8.9829   9.3808   9.3808   9.5835   9.5835   9.9439   9.9439
    14.6884  14.6884  15.3198  15.3198  15.5421  15.5421  16.1362  16.1362
    16.6194  16.6194

          k = 0.2136-0.4932-0.2417 (  4082 PWs)   bands (ev):

   -36.9783 -36.9783 -36.9443 -36.9443 -15.5746 -15.5746 -15.4268 -15.4268
   -15.1781 -15.1781 -15.0262 -15.0262 -14.9733 -14.9733 -14.8782 -14.8782
    -6.3293  -6.3293  -5.8754  -5.8754  -5.3462  -5.3462  -5.0454  -5.0454
     6.0912   6.0912   6.5156   6.5156   6.7747   6.7747   7.0144   7.0144
     7.4399   7.4399   8.0550   8.0550   8.4013   8.4013   8.8597   8.8597
     9.1955   9.1955   9.4598   9.4598   9.5570   9.5570   9.9605   9.9605
    14.8065  14.8065  15.3539  15.3539  15.6999  15.6999  15.9995  15.9995
    16.6270  16.6270

          k =-0.5071 0.0000-0.0005 (  4096 PWs)   bands (ev):

   -36.9861 -36.9679 -36.9539 -36.9374 -15.5512 -15.4146 -15.3284 -15.3252
   -15.3223 -15.1949 -15.0894 -15.0821 -14.9997 -14.9731 -14.9487 -14.9182
    -6.4569  -5.9301  -5.8697  -5.7035  -5.5847  -5.2647  -5.1818  -5.1425
     5.5400   6.0387   6.1395   6.3231   6.4215   6.5346   7.0861   7.2832
     7.4614   7.6567   8.0339   8.0549   8.4420   8.8088   8.9751   8.9837
     9.1015   9.2566   9.2967   9.6619   9.8382   9.9711  10.1419  10.4632
    14.1839  15.0832  15.1694  15.2900  15.7233  15.7492  16.0036  16.1661
    16.9125  16.9806

          k =-0.4672 0.0000 0.2414 (  4077 PWs)   bands (ev):

   -36.9831 -36.9617 -36.9605 -36.9400 -15.5301 -15.4152 -15.3754 -15.3733
   -15.2728 -15.2259 -15.1443 -15.0520 -14.9724 -14.9585 -14.9457 -14.8840
    -6.3535  -5.9535  -5.8435  -5.7171  -5.5202  -5.3013  -5.2978  -5.1650
     5.8836   6.0449   6.2640   6.2891   6.3963   6.5827   6.9692   7.3814
     7.4297   7.7668   7.9341   8.2688   8.2778   8.7032   8.8561   9.0387
     9.1034   9.2366   9.3964   9.4436   9.7240   9.7425   9.9995  10.4545
    14.2394  14.7814  15.2215  15.3927  15.6691  15.8237  16.0023  16.0768
    16.7151  16.9781

          k =-0.5871 0.0000-0.4844 (  4098 PWs)   bands (ev):

   -36.9733 -36.9733 -36.9493 -36.9493 -15.4908 -15.4908 -15.3651 -15.3651
   -15.2502 -15.2502 -15.1361 -15.1361 -14.9654 -14.9654 -14.8682 -14.8682
    -6.1166  -6.1166  -5.7764  -5.7764  -5.3915  -5.3915  -5.3002  -5.3002
     6.0915   6.0915   6.4362   6.4362   6.7574   6.7574   6.9167   6.9167
     7.2823   7.2823   8.2214   8.2214   8.5978   8.5978   8.8541   8.8541
     9.2256   9.2256   9.3304   9.3304   9.6347   9.6347  10.0829  10.0829
    14.3942  14.3942  15.4374  15.4374  15.6409  15.6409  16.1080  16.1080
    16.6347  16.6347

          k =-0.5071 0.2466-0.0005 (  4084 PWs)   bands (ev):

   -36.9818 -36.9689 -36.9531 -36.9415 -15.5388 -15.4424 -15.3782 -15.3666
   -15.2973 -15.2116 -15.0632 -15.0412 -14.9907 -14.9650 -14.9346 -14.9165
    -6.3988  -5.9220  -5.8477  -5.7953  -5.5528  -5.3405  -5.1838  -5.1215
     5.8317   6.1349   6.2028   6.3795   6.5226   6.8288   7.0461   7.4374
     7.4596   7.6564   7.9704   8.1456   8.3844   8.4753   8.6074   8.7708
     9.0600   9.4057   9.4292   9.4977   9.7123   9.8960   9.9226  10.1867
[...]
   -15.2685 -15.2685 -15.0777 -15.0777 -15.0371 -15.0371 -14.8737 -14.8737
    -6.2104  -6.2104  -5.7624  -5.7624  -5.3926  -5.3926  -5.2177  -5.2177
     5.8555   5.8555   6.3690   6.3690   6.7883   6.7883   6.9873   6.9873
     7.2898   7.2898   8.1476   8.1476   8.5576   8.5576   8.9306   8.9306
     9.3174   9.3174   9.5225   9.5225   9.7135   9.7135  10.1235  10.1235
    15.0521  15.0521  15.4488  15.4488  15.7746  15.7746  16.0526  16.0526
    16.5805  16.5805

          k = 0.0400-0.4927 0.2421 (  4090 PWs)   bands (ev):

   -36.9770 -36.9770 -36.9418 -36.9418 -15.4512 -15.4512 -15.3465 -15.3465
   -15.2840 -15.2840 -15.0756 -15.0756 -15.0044 -15.0044 -14.8980 -14.8980
    -6.1592  -6.1592  -5.8504  -5.8504  -5.3475  -5.3475  -5.2248  -5.2248
     6.0817   6.0817   6.4143   6.4143   6.7678   6.7678   7.1648   7.1648
     7.4012   7.4012   7.9066   7.9066   8.4341   8.4341   8.8817   8.8817
     9.1043   9.1043   9.4694   9.4694   9.7415   9.7415  10.0367  10.0367
    14.9877  14.9877  15.2484  15.2484  15.7631  15.7631  16.1790  16.1790
    16.5671  16.5671

          k =-0.0800-0.4927-0.4841 (  4068 PWs)   bands (ev):

   -36.9695 -36.9695 -36.9493 -36.9493 -15.4080 -15.4080 -15.3915 -15.3915
   -15.2833 -15.2833 -15.0841 -15.0841 -14.9692 -14.9692 -14.9263 -14.9263
    -6.0299  -6.0299  -6.0109  -6.0109  -5.2725  -5.2725  -5.2675  -5.2675
     6.4168   6.4168   6.4261   6.4261   6.9544   6.9544   6.9763   6.9763
     7.7336   7.7336   7.8011   7.8011   8.1477   8.1477   8.4740   8.4740
     9.0625   9.0625   9.6454   9.6454   9.6692   9.6692   9.9158   9.9158
    14.9020  14.9020  15.0712  15.0712  15.7398  15.7398  16.2940  16.2940
    16.6898  16.6898

          k = 0.2538 0.0000 0.0003 (  4062 PWs)   bands (ev):

   -37.0001 -36.9502 -36.9500 -36.9372 -15.5651 -15.5522 -15.5139 -15.2837
   -15.1297 -15.1136 -15.0960 -15.0637 -14.9770 -14.9763 -14.9239 -14.8775
    -6.8037  -5.9252  -5.9080  -5.8369  -5.2344  -5.2268  -5.1746  -5.0360
     5.6785   5.8152   5.9794   6.1733   6.1932   6.6691   7.2024   7.2684
     7.6927   7.7485   8.1749   8.2783   8.3126   8.6412   8.9108   9.0065
     9.1904   9.2891   9.4303   9.7249   9.8697   9.9707  10.0559  10.4995
    14.5177  14.8038  15.1050  15.3180  15.8311  15.8813  16.0139  16.2624
    16.7147  16.8861

          k = 0.2938 0.0000 0.2423 (  4071 PWs)   bands (ev):

   -36.9866 -36.9604 -36.9543 -36.9361 -15.4713 -15.4554 -15.4546 -15.3590
   -15.2188 -15.1465 -15.1155 -15.0485 -14.9953 -14.9808 -14.9326 -14.9315
    -6.5164  -5.8759  -5.8559  -5.7866  -5.3811  -5.3718  -5.2644  -5.1011
     5.7882   6.1119   6.2633   6.3265   6.4811   6.7135   7.3032   7.3239
     7.5520   7.6380   7.6608   7.9481   8.3512   8.6120   8.9182   9.1212
     9.1249   9.1973   9.2695   9.4235   9.6284   9.8543  10.1509  10.4184
    14.3844  14.7763  15.0582  15.4435  15.6806  15.9127  16.2558  16.3632
    16.6570  16.9243

          k = 0.1738 0.0000-0.4839 (  4075 PWs)   bands (ev):

   -36.9806 -36.9643 -36.9545 -36.9381 -15.5074 -15.4244 -15.3719 -15.3594
   -15.3025 -15.2753 -15.0864 -15.0507 -14.9576 -14.9505 -14.9244 -14.9021
    -6.2565  -6.0845  -5.8744  -5.8096  -5.4090  -5.3132  -5.2207  -5.1989
     6.0838   6.0939   6.4047   6.4605   6.6253   6.8350   6.9422   7.3718
     7.5200   7.6256   7.7776   7.9983   8.2949   8.3685   8.7430   8.8483
     8.8933   9.2300   9.3182   9.6269   9.6944   9.8687  10.0476  10.1601
    14.5065  14.6132  15.1975  15.2557  15.7974  15.9196  16.1940  16.4123
    16.4421  16.8383

          k = 0.2138 0.0000-0.2418 (  4067 PWs)   bands (ev):

   -36.9973 -36.9515 -36.9451 -36.9435 -15.5716 -15.5485 -15.4828 -15.3478
   -15.1611 -15.1355 -15.0922 -15.0612 -14.9652 -14.9537 -14.9253 -14.8309
    -6.7020  -5.9613  -5.8957  -5.8578  -5.2920  -5.1777  -5.1769  -5.0964
     5.8007   6.0236   6.0309   6.1658   6.3418   6.9497   6.9677   7.2080
     7.3445   8.0250   8.0579   8.3376   8.5157   8.5842   8.6760   9.0309
     9.1557   9.2382   9.3402   9.6065   9.6495   9.9118  10.0406  10.3905
    14.6884  14.7333  15.0795  15.4063  15.6593  15.8928  15.9206  16.1869
    16.6125  16.8102

          k = 0.2538 0.2464 0.0003 (  4066 PWs)   bands (ev):

   -36.9935 -36.9609 -36.9446 -36.9384 -15.5557 -15.4893 -15.4710 -15.3224
   -15.2066 -15.1470 -15.0772 -15.0667 -14.9998 -14.9536 -14.9309 -14.8737
    -6.6218  -5.9369  -5.8456  -5.8032  -5.3980  -5.2463  -5.1744  -5.1291
     5.6930   6.0881   6.1479   6.3253   6.4907   6.6638   7.0595   7.2419
     7.5629   7.7577   7.7791   8.3167   8.4657   8.6086   8.8389   8.9874
     9.0867   9.3362   9.4890   9.5518   9.7454   9.8528   9.9694  10.2418
    14.6538  14.9072  15.1863  15.4087  15.7264  15.8188  16.0995  16.2819
    16.5069  16.5502

          k = 0.2938 0.2464 0.2423 (  4079 PWs)   bands (ev):

   -36.9817 -36.9622 -36.9535 -36.9401 -15.4923 -15.4638 -15.4400 -15.2978
   -15.2486 -15.2437 -15.0817 -15.0216 -14.9957 -14.9723 -14.9493 -14.9076
    -6.3887  -5.9790  -5.9035  -5.7923  -5.3349  -5.3233  -5.2907  -5.1441
     5.8678   6.2963   6.3867   6.4422   6.6300   6.8902   7.0358   7.1270
     7.4899   7.6145   7.8733   8.0531   8.3705   8.6073   8.7176   8.8309
     9.0633   9.2109   9.4020   9.4447   9.5232   9.8288   9.8743  10.2421
    14.4535  14.9775  15.0853  15.4000  15.6100  15.8308  16.1694  16.3118
    16.5262  16.8511

          k = 0.1738 0.2464-0.4839 (  4085 PWs)   bands (ev):

   -36.9770 -36.9626 -36.9561 -36.9417 -15.5501 -15.5025 -15.4245 -15.3806
   -15.2294 -15.2196 -15.0467 -15.0017 -14.9641 -14.9508 -14.9278 -14.9038
    -6.3167  -6.0921  -6.0185  -5.8161  -5.3579  -5.3452  -5.1669  -5.0506
     6.1253   6.3428   6.3858   6.5385   6.6963   6.8174   7.0138   7.3005
     7.4668   7.5716   7.8430   8.1666   8.2569   8.4911   8.5323   8.8357
     8.8797   9.0896   9.3101   9.4781   9.6189   9.8014   9.9321  10.1077
    14.5223  14.7700  15.1604  15.2800  15.6420  15.8730  16.0774  16.3143
    16.5155  16.7408

          k = 0.2138 0.2464-0.2418 (  4072 PWs)   bands (ev):

   -36.9913 -36.9601 -36.9446 -36.9414 -15.5987 -15.5211 -15.4963 -15.3054
   -15.2513 -15.1293 -15.0757 -15.0362 -14.9809 -14.9265 -14.9169 -14.8428
    -6.6070  -6.0461  -5.8875  -5.8176  -5.3720  -5.3335  -5.0861  -5.0129
     5.8842   6.1510   6.2070   6.3372   6.5120   6.8331   6.9402   7.2416
     7.3636   7.7229   7.9495   8.3951   8.4657   8.6700   8.7704   8.9427
     9.0534   9.1731   9.3830   9.4612   9.6589   9.7346  10.0088  10.1878
    14.7670  14.8992  15.1949  15.2646  15.5607  15.7849  16.0278  16.3112
    16.4708  16.6810

          k = 0.2538-0.4927 0.0003 (  4074 PWs)   bands (ev):

   -36.9776 -36.9776 -36.9411 -36.9411 -15.4855 -15.4855 -15.3627 -15.3627
   -15.2753 -15.2753 -15.0436 -15.0436 -14.9893 -14.9893 -14.9011 -14.9011
    -6.2013  -6.2013  -5.7710  -5.7710  -5.4234  -5.4234  -5.1866  -5.1866
     5.9636   5.9636   6.5218   6.5218   6.7440   6.7440   7.0850   7.0850
     7.5327   7.5327   7.8939   7.8939   8.5650   8.5650   8.6785   8.6785
     9.2856   9.2856   9.5060   9.5060   9.7010   9.7010   9.9504   9.9504
    14.8820  14.8820  15.2915  15.2915  15.9568  15.9568  16.0954  16.0954
    16.3916  16.3916

          k = 0.2938-0.4927 0.2423 (  4084 PWs)   bands (ev):

   -36.9706 -36.9706 -36.9481 -36.9481 -15.4763 -15.4763 -15.3952 -15.3952
   -15.2441 -15.2441 -15.0365 -15.0365 -14.9823 -14.9823 -14.9252 -14.9252
    -6.1071  -6.1071  -5.9436  -5.9436  -5.3251  -5.3251  -5.2040  -5.2040
     6.1630   6.1630   6.5644   6.5644   6.7717   6.7717   7.2442   7.2442
     7.6255   7.6255   7.7348   7.7348   8.5046   8.5046   8.6230   8.6230
     9.0510   9.0510   9.3850   9.3850   9.6188   9.6188   9.9562   9.9562
    14.7930  14.7930  15.2697  15.2697  15.7313  15.7313  16.1177  16.1177
    16.5325  16.5325

          k = 0.1738-0.4927-0.4839 (  4078 PWs)   bands (ev):

   -36.9686 -36.9686 -36.9501 -36.9501 -15.5512 -15.5512 -15.4654 -15.4654
   -15.1432 -15.1432 -15.0123 -15.0123 -14.9615 -14.9615 -14.9118 -14.9118
    -6.2660  -6.2660  -5.9769  -5.9769  -5.2874  -5.2874  -5.0500  -5.0500
     6.3656   6.3656   6.5689   6.5689   6.6917   6.6917   7.1557   7.1557
     7.6436   7.6436   7.9622   7.9622   8.2848   8.2848   8.6209   8.6209
     8.9833   8.9833   9.3862   9.3862   9.5836   9.5836   9.9456   9.9456
    14.6965  14.6965  15.3238  15.3238  15.5400  15.5400  16.1404  16.1404
    16.6334  16.6334

          k = 0.2138-0.4927-0.2418 (  4072 PWs)   bands (ev):

   -36.9764 -36.9764 -36.9423 -36.9423 -15.5722 -15.5722 -15.4246 -15.4246
   -15.1756 -15.1756 -15.0239 -15.0239 -14.9713 -14.9713 -14.8754 -14.8754
    -6.3248  -6.3248  -5.8689  -5.8689  -5.3449  -5.3449  -5.0441  -5.0441
     6.0925   6.0925   6.5195   6.5195   6.7800   6.7800   7.0194   7.0194
     7.4504   7.4504   8.0538   8.0538   8.4039   8.4039   8.8654   8.8654
     9.2018   9.2018   9.4620   9.4620   9.5534   9.5534   9.9646   9.9646
    14.8097  14.8097  15.3598  15.3598  15.6950  15.6950  16.0086  16.0086
    16.6290  16.6290

          k =-0.5075 0.0000-0.0005 (  4084 PWs)   bands (ev):

   -36.9842 -36.9659 -36.9518 -36.9354 -15.5488 -15.4127 -15.3255 -15.3217
   -15.3199 -15.1924 -15.0870 -15.0811 -14.9973 -14.9711 -14.9469 -14.9152
    -6.4520  -5.9251  -5.8604  -5.7013  -5.5809  -5.2620  -5.1819  -5.1437
     5.5386   6.0467   6.1374   6.3319   6.4315   6.5411   7.0891   7.2921
     7.4760   7.6497   8.0370   8.0596   8.4518   8.8226   8.9845   8.9852
     9.0916   9.2551   9.3083   9.6616   9.8479   9.9591  10.1490  10.4582
    14.1760  15.0870  15.1973  15.3009  15.7200  15.7437  16.0072  16.1490
    16.9354  16.9787

          k =-0.4675 0.0000 0.2415 (  4067 PWs)   bands (ev):

   -36.9812 -36.9597 -36.9584 -36.9380 -15.5279 -15.4130 -15.3731 -15.3714
   -15.2705 -15.2233 -15.1418 -15.0497 -14.9703 -14.9562 -14.9436 -14.8809
    -6.3484  -5.9472  -5.8367  -5.7145  -5.5164  -5.3015  -5.2953  -5.1644
     5.8835   6.0465   6.2702   6.2912   6.3982   6.5889   6.9749   7.3906
     7.4244   7.7799   7.9422   8.2745   8.2786   8.7154   8.8598   9.0477
     9.1081   9.2303   9.3979   9.4426   9.7293   9.7492  10.0069  10.4555
    14.2332  14.7951  15.2286  15.3918  15.6826  15.8123  15.9955  16.0705
    16.7105  16.9757

          k =-0.5875 0.0000-0.4846 (  4082 PWs)   bands (ev):

   -36.9714 -36.9714 -36.9473 -36.9473 -15.4887 -15.4887 -15.3634 -15.3634
   -15.2476 -15.2476 -15.1337 -15.1337 -14.9629 -14.9629 -14.8654 -14.8654
    -6.1107  -6.1107  -5.7724  -5.7724  -5.3894  -5.3894  -5.2981  -5.2981
     6.0939   6.0939   6.4399   6.4399   6.7501   6.7501   6.9260   6.9260
     7.2827   7.2827   8.2341   8.2341   8.6033   8.6033   8.8643   8.8643
     9.2298   9.2298   9.3300   9.3300   9.6391   9.6391  10.0938  10.0938
    14.3940  14.3940  15.4301  15.4301  15.6479  15.6479  16.1088  16.1088
    16.6242  16.6242

          k =-0.5075 0.2464-0.0005 (  4086 PWs)   bands (ev):

   -36.9799 -36.9669 -36.9510 -36.9395 -15.5369 -15.4399 -15.3760 -15.3641
   -15.2950 -15.2084 -15.0609 -15.0398 -14.9885 -14.9625 -14.9316 -14.9143
    -6.3944  -5.9182  -5.8429  -5.7888  -5.5490  -5.3380  -5.1823  -5.1213
     5.8303   6.1343   6.2086   6.3872   6.5284   6.8341   7.0532   7.4367
     7.4669   7.6656   7.9705   8.1506   8.3921   8.4786   8.6065   8.7735
     9.0642   9.4055   9.4369   9.5062   9.7176   9.9083   9.9105  10.1796
    14.4742  14.7560  15.2514  15.4205  15.8178  15.8184  16.0406  16.1767
    16.3380  16.7008

          k =-0.4675 0.2464 0.2415 (  4082 PWs)   bands (ev):

   -36.9776 -36.9634 -36.9549 -36.9415 -15.5598 -15.5022 -15.4630 -15.3843
   -15.2371 -15.1500 -15.0541 -15.0148 -14.9773 -14.9479 -14.9229 -14.8904
    -6.3801  -5.9912  -5.9460  -5.8955  -5.3764  -5.3134  -5.1577  -5.0825
     6.0686   6.1301   6.2879   6.4366   6.5452   6.8150   7.1551   7.2092
     7.3552   7.6881   8.0941   8.1637   8.5051   8.5504   8.6752   8.8767
     8.9882   9.1966   9.2581   9.3848   9.5448   9.7828   9.9369  10.1923
    14.4143  14.8895  14.9690  15.4885  15.6571  15.7679  15.9842  16.1675
    16.5072  16.7445

          k =-0.5875 0.2464-0.4846 (  4090 PWs)   bands (ev):

   -36.9696 -36.9696 -36.9490 -36.9490 -15.5550 -15.5550 -15.4855 -15.4855
   -15.1180 -15.1180 -15.0531 -15.0531 -14.9609 -14.9609 -14.8725 -14.8725
    -6.2468  -6.2468  -5.9687  -5.9687  -5.2339  -5.2339  -5.1258  -5.1258
     6.1713   6.1713   6.5400   6.5400   6.7022   6.7022   7.0104   7.0104
     7.6895   7.6895   8.0848   8.0848   8.3539   8.3539   8.7134   8.7134
     9.1478   9.1478   9.2089   9.2089   9.7925   9.7925   9.9253   9.9253
    14.4750  14.4750  15.3531  15.3531  15.5231  15.5231  16.2077  16.2077
    16.4574  16.4574

          k =-0.5075-0.4927-0.0005 (  4080 PWs)   bands (ev):

   -36.9716 -36.9716 -36.9471 -36.9471 -15.5031 -15.5031 -15.3942 -15.3942
   -15.2470 -15.2470 -15.0510 -15.0510 -14.9506 -14.9506 -14.9119 -14.9119
    -6.1925  -6.1925  -5.7796  -5.7796  -5.4458  -5.4458  -5.1634  -5.1634
     6.2734   6.2734   6.5465   6.5465   6.6557   6.6557   7.0237   7.0237
     7.6926   7.6926   7.9764   7.9764   8.5078   8.5078   8.7583   8.7583
     9.0304   9.0304   9.1850   9.1850   9.6327   9.6327   9.9614   9.9614
    14.8399  14.8399  15.1639  15.1639  15.9446  15.9446  16.1050  16.1050
    16.3303  16.3303

          k =-0.4675-0.4927 0.2415 (  4072 PWs)   bands (ev):

   -36.9698 -36.9698 -36.9489 -36.9489 -15.5689 -15.5689 -15.4804 -15.4804
   -15.1322 -15.1322 -15.0145 -15.0145 -14.9459 -14.9459 -14.9013 -14.9013
    -6.2784  -6.2784  -5.9773  -5.9773  -5.2430  -5.2430  -5.0820  -5.0820
     6.3534   6.3534   6.5217   6.5217   6.6568   6.6568   7.0631   7.0631
     7.8255   7.8255   8.0570   8.0570   8.1641   8.1641   8.8052   8.8052
     9.0967   9.0967   9.2900   9.2900   9.5356   9.5356   9.8319   9.8319
    14.7560  14.7560  15.1814  15.1814  15.7220  15.7220  16.0401  16.0401
    16.4370  16.4370

          k =-0.5875-0.4927-0.4846 (  4076 PWs)   bands (ev):

   -36.9676 -36.9676 -36.9510 -36.9510 -15.6049 -15.6049 -15.5518 -15.5518
   -15.0477 -15.0477 -14.9759 -14.9759 -14.9607 -14.9607 -14.8873 -14.8873
    -6.3539  -6.3539  -6.0997  -6.0997  -5.1199  -5.1199  -5.0066  -5.0066
     6.2926   6.2926   6.5845   6.5845   6.7800   6.7800   7.1532   7.1532
     7.8449   7.8449   7.9200   7.9200   8.3474   8.3474   8.4528   8.4528
     9.0722   9.0722   9.3492   9.3492   9.5219   9.5219   9.8658   9.8658
    14.6655  14.6655  15.1906  15.1906  15.5419  15.5419  15.9129  15.9129
    16.7369  16.7370

     the Fermi energy is    13.7235 ev

!    total energy              =    -731.80029320 Ry
     estimated scf accuracy    <          8.9E-11 Ry
     smearing contrib. (-TS)   =      -0.00000000 Ry
     internal energy E=F+TS    =    -731.80029320 Ry

     The total energy is F=E-TS. E is the sum of the following terms:
     one-electron contribution =    -130.67558287 Ry
     hartree contribution      =     122.73584139 Ry
     xc contribution           =    -131.38283883 Ry
     ewald contribution        =    -516.37859659 Ry
     one-center paw contrib.   =     -76.09911629 Ry

     convergence has been achieved in  14 iterations

     negative rho (up, down):  2.613E-01 0.000E+00

     Forces acting on atoms (cartesian axes, Ry/au):

     atom    1 type  1   force =     0.00000394   -0.00007097    0.00003218
     atom    2 type  1   force =     0.00000394    0.00007097    0.00003218
     atom    3 type  1   force =    -0.00000394   -0.00007097   -0.00003218
     atom    4 type  1   force =    -0.00000394    0.00007097   -0.00003218
     atom    5 type  2   force =     0.00000654    0.00000216   -0.00001856
     atom    6 type  2   force =     0.00000654   -0.00000216   -0.00001856
     atom    7 type  2   force =    -0.00000474    0.00006606   -0.00007042
     atom    8 type  2   force =     0.00000474    0.00006606    0.00007042
     atom    9 type  2   force =    -0.00000474   -0.00006606   -0.00007042
     atom   10 type  2   force =     0.00000474   -0.00006606    0.00007042
     atom   11 type  2   force =    -0.00000654    0.00000216    0.00001856
     atom   12 type  2   force =    -0.00000654   -0.00000216    0.00001856

     Total force =     0.000252     Total SCF correction =     0.000011


     Computing stress (Cartesian axis) and pressure


     negative rho (up, down):  2.613E-01 0.000E+00
          total   stress  (Ry/bohr**3)                   (kbar)     P=       -0.50
  -0.00000370   0.00000000   0.00000011           -0.54        0.00        0.02
   0.00000000  -0.00000270   0.00000000            0.00       -0.40        0.00
   0.00000011   0.00000000  -0.00000388            0.02        0.00       -0.57


     Writing output data file ./out/O2Zr.save/

     init_run     :     13.71s CPU     13.84s WALL (       2 calls)
     electrons    :   2003.40s CPU   2029.30s WALL (      19 calls)
     update_pot   :     55.06s CPU     55.13s WALL (      17 calls)
     forces       :     72.78s CPU     72.91s WALL (      19 calls)
     stress       :    128.06s CPU    128.17s WALL (      19 calls)

     Called by init_run:
     wfcinit      :      7.91s CPU      8.01s WALL (       2 calls)
     potinit      :      1.88s CPU      1.89s WALL (       2 calls)
     hinit0       :      3.60s CPU      3.61s WALL (       2 calls)

     Called by electrons:
     c_bands      :   1793.06s CPU   1814.78s WALL (     180 calls)
     sum_band     :    164.98s CPU    168.73s WALL (     180 calls)
     v_of_rho     :      7.41s CPU      7.60s WALL (     183 calls)
     newd         :     20.82s CPU     20.89s WALL (     183 calls)
     PAW_pot      :     21.95s CPU     21.99s WALL (     200 calls)
     mix_rho      :      0.93s CPU      0.96s WALL (     180 calls)

     Called by c_bands:
     init_us_2    :      7.06s CPU      7.12s WALL (    6255 calls)
     cegterg      :   1754.50s CPU   1776.11s WALL (    2700 calls)

     Called by *egterg:
     cdiaghg      :    113.77s CPU    114.94s WALL (    9452 calls)
     h_psi        :    701.16s CPU    719.75s WALL (    9977 calls)
     s_psi        :    206.70s CPU    206.86s WALL (    9977 calls)
     g_psi        :      2.46s CPU      2.47s WALL (    7247 calls)

     Called by h_psi:
     h_psi:calbec :    221.74s CPU    222.67s WALL (    9977 calls)
     vloc_psi     :    267.88s CPU    285.35s WALL (    9977 calls)
     add_vuspsi   :    209.77s CPU    209.95s WALL (    9977 calls)

     General routines
     calbec       :    358.88s CPU    360.21s WALL (   14357 calls)
     fft          :      6.66s CPU      6.95s WALL (    2849 calls)
     ffts         :      0.21s CPU      0.23s WALL (     363 calls)
     fftw         :    274.72s CPU    292.59s WALL (  987640 calls)
     interpolate  :      0.49s CPU      0.52s WALL (     183 calls)

     Parallel routines
     fft_scatt_xy :     33.41s CPU     35.62s WALL (  990852 calls)
     fft_scatt_yz :     81.80s CPU     87.68s WALL (  990852 calls)

     PWSCF        :  38m 6.16s CPU  38m32.62s WALL


   This run was terminated on:   4:14:15   1Jul2026            

=------------------------------------------------------------------------------=
   JOB DONE.
=------------------------------------------------------------------------------=
Note: The following floating-point exceptions are signalling: IEEE_UNDERFLOW_FLAG IEEE_DENORMAL
Note: The following floating-point exceptions are signalling: IEEE_UNDERFLOW_FLAG IEEE_DENORMAL
Note: The following floating-point exceptions are signalling: IEEE_UNDERFLOW_FLAG IEEE_DENORMAL
Note: The following floating-point exceptions are signalling: IEEE_UNDERFLOW_FLAG IEEE_DENORMAL
Note: The following floating-point exceptions are signalling: IEEE_UNDERFLOW_FLAG IEEE_DENORMAL
Note: The following floating-point exceptions are signalling: IEEE_UNDERFLOW_FLAG IEEE_DENORMAL
Note: The following floating-point exceptions are signalling: IEEE_UNDERFLOW_FLAG IEEE_DENORMAL
Note: The following floating-point exceptions are signalling: IEEE_UNDERFLOW_FLAG IEEE_DENORMAL
