
     Program PWSCF v.6.7MaX starts on  1Jul2026 at  4:14:15 

     This program is part of the open-source Quantum ESPRESSO suite
     for quantum simulation of materials; please cite
         "P. Giannozzi et al., J. Phys.:Condens. Matter 21 395502 (2009);
         "P. Giannozzi et al., J. Phys.:Condens. Matter 29 465901 (2017);
          URL http://www.quantum-espresso.org", 
     in publications or presentations arising from this work. More details at
     http://www.quantum-espresso.org/quote

     Parallel version (MPI), running on     8 processors

     MPI processes distributed on     1 nodes
     K-points division:     npool     =       2
     R & G space division:  proc/nbgrp/npool/nimage =       4
     Waiting for input...
     Reading input from standard input
Warning: card &CELL ignored
Warning: card / ignored

     Current dimensions of program PWSCF are:
     Max number of different atomic species (ntypx) = 10
     Max number of k-points (npk) =  40000
     Max angular momentum in pseudopotentials (lmaxx) =  3
     file O.pbe-n-kjpaw_psl.0.1.UPF: wavefunction(s)  2P renormalized

     Subspace diagonalization in iterative solution of the eigenvalue problem:
     one sub-group per band group will be used
     scalapack distributed-memory algorithm (size of sub-group:  2*  2 procs)

     Message from routine setup:
     using ibrav=0 with symmetry is DISCOURAGED, use correct ibrav instead

     Parallelization info
     --------------------
     sticks:   dense  smooth     PW     G-vecs:    dense   smooth      PW
     Min         612     303     90                23105     8166    1329
     Max         613     304     91                23108     8169    1331
     Sum        2451    1213    361                92427    32667    5319



     bravais-lattice index     =            0
     lattice parameter (alat)  =       9.7396  a.u.
     unit-cell volume          =     956.0255 (a.u.)^3
     number of atoms/cell      =           12
     number of atomic types    =            2
     number of electrons       =        96.00
     number of Kohn-Sham states=           48
     kinetic-energy cutoff     =      40.0000  Ry
     charge density cutoff     =     320.0000  Ry
     scf convergence threshold =      1.0E-10
     mixing beta               =       0.3000
     number of iterations used =            8  plain     mixing
     Exchange-correlation= SLA  PW   PBX  PBC
                           (   1   4   3   4   0   0   0)

     celldm(1)=   9.739625  celldm(2)=   0.000000  celldm(3)=   0.000000
     celldm(4)=   0.000000  celldm(5)=   0.000000  celldm(6)=   0.000000

     crystal axes: (cart. coord. in units of alat)
               a(1) = (   0.986630   0.000000  -0.162976 )  
               a(2) = (   0.000000   1.014381   0.000000 )  
               a(3) = (  -0.001033   0.000000   1.034091 )  

     reciprocal axes: (cart. coord. in units 2 pi/alat)
               b(1) = (  1.013718 -0.000000  0.001013 )  
               b(2) = ( -0.000000  0.985823 -0.000000 )  
               b(3) = (  0.159765 -0.000000  0.967192 )  


     PseudoPot. # 1 for Zr read from file:
     /data/pseudopotentials/zr_pbe_v1.uspp.F.UPF
     MD5 check sum: 5db81b1e868ab7776c4564c113de050b
     Pseudo is Ultrasoft + core correction, Zval = 12.0
     Generated by new atomic code, or converted to UPF format
     Using radial grid of  887 points,  6 beta functions with: 
                l(1) =   0
                l(2) =   0
                l(3) =   1
                l(4) =   1
                l(5) =   2
                l(6) =   2
     Q(r) pseudized with  6 coefficients,  rinner =    1.200   1.200   1.200
                                                       1.200   1.200

     PseudoPot. # 2 for O  read from file:
     /data/pseudopotentials/O.pbe-n-kjpaw_psl.0.1.UPF
     MD5 check sum: 833c495a5d0f9b75bf046115549bffff
     Pseudo is Projector augmented-wave + core cor, Zval =  6.0
     Generated using &quot;atomic&quot; code by A. Dal Corso  v.6.3
     Shape of augmentation charge: BESSEL
     Using radial grid of 1095 points,  4 beta functions with: 
                l(1) =   0
                l(2) =   0
                l(3) =   1
                l(4) =   1
     Q(r) pseudized with 0 coefficients 


     atomic species   valence    mass     pseudopotential
        Zr            12.00    91.22400     Zr( 1.00)
        O              6.00    15.99900     O ( 1.00)

      4 Sym. Ops., with inversion, found ( 2 have fractional translation)



   Cartesian axes

     site n.     atom                  positions (alat units)
         1           Zr  tau(   1) = (   0.7131986   0.9716286   0.6994038  )
         2           Zr  tau(   2) = (   0.7137151   0.5499433   0.1823582  )
         3           Zr  tau(   3) = (   0.2718819   0.4644379   0.6887568  )
         4           Zr  tau(   4) = (   0.2723984   0.0427527   0.1717112  )
         5           O   tau(   5) = (   0.0674116   0.1686795   0.8613159  )
         6           O   tau(   6) = (   0.0679281   0.3385111   0.3442703  )
         7           O   tau(   7) = (   0.5433121   0.2611225  -0.0676254  )
         8           O   tau(   8) = (   0.4428015   0.7683131   0.4216948  )
         9           O   tau(   9) = (   0.5427956   0.2460682   0.4494202  )
        10           O   tau(  10) = (   0.4422850   0.7532588   0.9387404  )
        11           O   tau(  11) = (   0.9176689   0.6758701   0.5268447  )
        12           O   tau(  12) = (   0.9181854   0.8457018   0.0097991  )

     number of k points=    30
                       cart. coord. in units 2pi/alat
        k(    1) = (   0.0000000   0.0000000   0.0000000), wk =   0.0312500
        k(    2) = (   0.0399413   0.0000000   0.2417981), wk =   0.0625000
        k(    3) = (  -0.0798827   0.0000000  -0.4835961), wk =   0.0312500
        k(    4) = (   0.0000000   0.2464557   0.0000000), wk =   0.0625000
        k(    5) = (   0.0399413   0.2464557   0.2417981), wk =   0.1250000
        k(    6) = (  -0.0798827   0.2464557  -0.4835961), wk =   0.0625000
        k(    7) = (   0.0000000  -0.4929113   0.0000000), wk =   0.0312500
        k(    8) = (   0.0399413  -0.4929113   0.2417981), wk =   0.0625000
        k(    9) = (  -0.0798827  -0.4929113  -0.4835961), wk =   0.0312500
        k(   10) = (   0.2534296   0.0000000   0.0002532), wk =   0.0625000
        k(   11) = (   0.2933710   0.0000000   0.2420512), wk =   0.0625000
        k(   12) = (   0.1735469   0.0000000  -0.4833430), wk =   0.0625000
        k(   13) = (   0.2134883   0.0000000  -0.2415449), wk =   0.0625000
        k(   14) = (   0.2534296   0.2464557   0.0002532), wk =   0.1250000
        k(   15) = (   0.2933710   0.2464557   0.2420512), wk =   0.1250000
        k(   16) = (   0.1735469   0.2464557  -0.4833430), wk =   0.1250000
        k(   17) = (   0.2134883   0.2464557  -0.2415449), wk =   0.1250000
        k(   18) = (   0.2534296  -0.4929113   0.0002532), wk =   0.0625000
        k(   19) = (   0.2933710  -0.4929113   0.2420512), wk =   0.0625000
        k(   20) = (   0.1735469  -0.4929113  -0.4833430), wk =   0.0625000
        k(   21) = (   0.2134883  -0.4929113  -0.2415449), wk =   0.0625000
        k(   22) = (  -0.5068592   0.0000000  -0.0005063), wk =   0.0312500
        k(   23) = (  -0.4669179   0.0000000   0.2412918), wk =   0.0625000
        k(   24) = (  -0.5867419   0.0000000  -0.4841025), wk =   0.0312500
        k(   25) = (  -0.5068592   0.2464557  -0.0005063), wk =   0.0625000
        k(   26) = (  -0.4669179   0.2464557   0.2412918), wk =   0.1250000
        k(   27) = (  -0.5867419   0.2464557  -0.4841025), wk =   0.0625000
        k(   28) = (  -0.5068592  -0.4929113  -0.0005063), wk =   0.0312500
        k(   29) = (  -0.4669179  -0.4929113   0.2412918), wk =   0.0625000
        k(   30) = (  -0.5867419  -0.4929113  -0.4841025), wk =   0.0312500

     Dense  grid:    92427 G-vectors     FFT dimensions: (  60,  60,  60)

     Smooth grid:    32667 G-vectors     FFT dimensions: (  40,  40,  48)

     Estimated max dynamical RAM per process >      67.74 MB

     Estimated total dynamical RAM >     541.92 MB

     Check: negative core charge=   -0.000005

     Initial potential from superposition of free atoms

     starting charge   95.99139, renormalised to   96.00000

     negative rho (up, down):  2.441E-01 0.000E+00
     Starting wfcs are   84 randomized atomic wfcs
     Checking if some PAW data can be deallocated... 

     total cpu time spent up to now is        6.8 secs

     Self-consistent Calculation

     iteration #  1     ecut=    40.00 Ry     beta= 0.30
     Davidson diagonalization with overlap
     ethr =  1.00E-02,  avg # of iterations =  1.0

     negative rho (up, down):  2.486E-01 0.000E+00

     total cpu time spent up to now is       12.9 secs

     total energy              =    -731.01169204 Ry
     estimated scf accuracy    <       4.39948794 Ry

     iteration #  2     ecut=    40.00 Ry     beta= 0.30
     Davidson diagonalization with overlap
     ethr =  4.58E-03,  avg # of iterations =  2.0

     negative rho (up, down):  2.547E-01 0.000E+00

     total cpu time spent up to now is       21.3 secs

     total energy              =    -731.66187777 Ry
     estimated scf accuracy    <       0.25091637 Ry

     iteration #  3     ecut=    40.00 Ry     beta= 0.30
     Davidson diagonalization with overlap
     ethr =  2.61E-04,  avg # of iterations =  5.0

     negative rho (up, down):  2.556E-01 0.000E+00

     total cpu time spent up to now is       35.0 secs

     total energy              =    -731.72366898 Ry
     estimated scf accuracy    <       0.26259110 Ry

     iteration #  4     ecut=    40.00 Ry     beta= 0.30
     Davidson diagonalization with overlap
     ethr =  2.61E-04,  avg # of iterations =  3.5

     negative rho (up, down):  2.597E-01 0.000E+00

     total cpu time spent up to now is       45.3 secs

     total energy              =    -731.81000701 Ry
     estimated scf accuracy    <       0.05744968 Ry

     iteration #  5     ecut=    40.00 Ry     beta= 0.30
     Davidson diagonalization with overlap
     ethr =  5.98E-05,  avg # of iterations =  2.1

     negative rho (up, down):  2.608E-01 0.000E+00

     total cpu time spent up to now is       52.7 secs

     total energy              =    -731.79718272 Ry
     estimated scf accuracy    <       0.04379031 Ry

     iteration #  6     ecut=    40.00 Ry     beta= 0.30
     Davidson diagonalization with overlap
     ethr =  4.56E-05,  avg # of iterations =  2.0

     negative rho (up, down):  2.614E-01 0.000E+00

     total cpu time spent up to now is       60.6 secs

     total energy              =    -731.79795083 Ry
     estimated scf accuracy    <       0.00630383 Ry

     iteration #  7     ecut=    40.00 Ry     beta= 0.30
     Davidson diagonalization with overlap
     ethr =  6.57E-06,  avg # of iterations =  4.1

     negative rho (up, down):  2.615E-01 0.000E+00

     total cpu time spent up to now is       71.6 secs

     total energy              =    -731.80059580 Ry
     estimated scf accuracy    <       0.00082887 Ry

     iteration #  8     ecut=    40.00 Ry     beta= 0.30
     Davidson diagonalization with overlap
     ethr =  8.63E-07,  avg # of iterations =  3.4

     negative rho (up, down):  2.615E-01 0.000E+00

     total cpu time spent up to now is       80.3 secs

     total energy              =    -731.80045971 Ry
     estimated scf accuracy    <       0.00053079 Ry

     iteration #  9     ecut=    40.00 Ry     beta= 0.30
     Davidson diagonalization with overlap
     ethr =  5.53E-07,  avg # of iterations =  3.5

     negative rho (up, down):  2.615E-01 0.000E+00

     total cpu time spent up to now is       89.8 secs

     total energy              =    -731.80059092 Ry
     estimated scf accuracy    <       0.00002340 Ry

     iteration # 10     ecut=    40.00 Ry     beta= 0.30
     Davidson diagonalization with overlap
     ethr =  2.44E-08,  avg # of iterations =  4.2

     negative rho (up, down):  2.614E-01 0.000E+00

     total cpu time spent up to now is      100.8 secs

     total energy              =    -731.80060151 Ry
     estimated scf accuracy    <       0.00001320 Ry

     iteration # 11     ecut=    40.00 Ry     beta= 0.30
     Davidson diagonalization with overlap
     ethr =  1.38E-08,  avg # of iterations =  2.0

     negative rho (up, down):  2.614E-01 0.000E+00

     total cpu time spent up to now is      108.7 secs

     total energy              =    -731.80060064 Ry
     estimated scf accuracy    <       0.00000405 Ry

     iteration # 12     ecut=    40.00 Ry     beta= 0.30
     Davidson diagonalization with overlap
     ethr =  4.21E-09,  avg # of iterations =  3.8

     negative rho (up, down):  2.614E-01 0.000E+00

     total cpu time spent up to now is      119.4 secs

     total energy              =    -731.80060205 Ry
     estimated scf accuracy    <       0.00000108 Ry

     iteration # 13     ecut=    40.00 Ry     beta= 0.30
     Davidson diagonalization with overlap
     ethr =  1.13E-09,  avg # of iterations =  2.3

     negative rho (up, down):  2.614E-01 0.000E+00

     total cpu time spent up to now is      127.7 secs

     total energy              =    -731.80060212 Ry
     estimated scf accuracy    <       0.00000016 Ry

     iteration # 14     ecut=    40.00 Ry     beta= 0.30
     Davidson diagonalization with overlap
     ethr =  1.64E-10,  avg # of iterations =  3.8

     negative rho (up, down):  2.614E-01 0.000E+00

     total cpu time spent up to now is      138.4 secs

     total energy              =    -731.80060217 Ry
     estimated scf accuracy    <       0.00000002 Ry

     iteration # 15     ecut=    40.00 Ry     beta= 0.30
     Davidson diagonalization with overlap
     ethr =  2.05E-11,  avg # of iterations =  3.6

     negative rho (up, down):  2.614E-01 0.000E+00

     total cpu time spent up to now is      149.0 secs

     total energy              =    -731.80060217 Ry
     estimated scf accuracy    <       0.00000002 Ry

     iteration # 16     ecut=    40.00 Ry     beta= 0.30
     Davidson diagonalization with overlap
     ethr =  2.05E-11,  avg # of iterations =  2.1

     negative rho (up, down):  2.614E-01 0.000E+00

     total cpu time spent up to now is      157.6 secs

     total energy              =    -731.80060218 Ry
     estimated scf accuracy    <          2.0E-10 Ry

     iteration # 17     ecut=    40.00 Ry     beta= 0.30
     Davidson diagonalization with overlap
     ethr =  2.11E-13,  avg # of iterations =  5.1

     negative rho (up, down):  2.614E-01 0.000E+00

     total cpu time spent up to now is      173.0 secs

     total energy              =    -731.80060218 Ry
     estimated scf accuracy    <          1.0E-09 Ry

     iteration # 18     ecut=    40.00 Ry     beta= 0.30
     Davidson diagonalization with overlap
     ethr =  2.11E-13,  avg # of iterations =  3.8

     negative rho (up, down):  2.614E-01 0.000E+00

     total cpu time spent up to now is      184.4 secs

     End of self-consistent calculation

          k = 0.0000 0.0000 0.0000 (  4055 PWs)   bands (ev):

   -37.0441 -36.9836 -36.9764 -36.9753 -15.6717 -15.6105 -15.6088 -15.2821
   -15.1903 -15.1384 -15.0793 -15.0476 -15.0084 -14.9845 -14.9373 -14.8617
    -7.0645  -6.0911  -5.9118  -5.8376  -5.3177  -5.2323  -5.0249  -4.9133
     5.5454   5.5509   6.0165   6.1536   6.1593   6.5124   7.2974   7.4520
     7.7287   7.9087   8.0003   8.0564   8.6508   8.7191   8.7415   8.7656
     8.9297   9.3705   9.4151   9.6968   9.9002  10.0083  10.3184  10.5101

          k = 0.0399 0.0000 0.2418 (  4068 PWs)   bands (ev):

   -37.0350 -36.9913 -36.9766 -36.9765 -15.6173 -15.5582 -15.5214 -15.3379
   -15.2780 -15.0933 -15.0903 -15.0690 -15.0162 -14.9794 -14.9499 -14.9475
    -6.8272  -6.0244  -5.8990  -5.8304  -5.3830  -5.3080  -5.1477  -4.9793
     5.6932   5.8345   6.1321   6.2874   6.5302   6.7320   7.1177   7.3819
     7.4257   7.8556   7.9878   8.1416   8.2888   8.5163   8.6161   8.8252
     9.0297   9.1356   9.3259   9.5849   9.8766   9.9504  10.1552  10.2846

          k =-0.0799 0.0000-0.4836 (  4078 PWs)   bands (ev):

   -37.0129 -37.0129 -36.9768 -36.9768 -15.4761 -15.4761 -15.4411 -15.4411
   -15.2804 -15.2804 -15.0471 -15.0471 -15.0327 -15.0327 -14.9706 -14.9706
    -6.2724  -6.2724  -5.8980  -5.8980  -5.3477  -5.3477  -5.1842  -5.1842
     6.0457   6.0457   6.4762   6.4762   6.8269   6.8269   7.1328   7.1328
     7.5072   7.5072   7.8087   7.8087   8.1865   8.1865   8.6893   8.6893
     9.0125   9.0125   9.5117   9.5117   9.7711   9.7711  10.0594  10.0594

          k = 0.0000 0.2465 0.0000 (  4074 PWs)   bands (ev):

   -37.0365 -36.9961 -36.9742 -36.9726 -15.6148 -15.5691 -15.5224 -15.2902
   -15.2347 -15.1529 -15.1291 -15.0907 -15.0145 -15.0098 -14.9637 -14.8726
    -6.8112  -6.0151  -5.8614  -5.7867  -5.3662  -5.3331  -5.1678  -5.0446
     5.7383   5.7519   6.0685   6.0916   6.4986   6.6231   7.1482   7.1806
     7.3330   7.7513   8.1512   8.1933   8.5170   8.5684   8.9334   8.9382
     9.0491   9.3427   9.5389   9.5847   9.6541   9.7775  10.2503  10.2967

          k = 0.0399 0.2465 0.2418 (  4087 PWs)   bands (ev):

   -37.0284 -36.9963 -36.9801 -36.9746 -15.5745 -15.5094 -15.4776 -15.3615
   -15.2781 -15.1684 -15.1331 -15.0675 -15.0306 -14.9949 -14.9764 -14.9140
    -6.6308  -6.0161  -5.8434  -5.8273  -5.4353  -5.3355  -5.2208  -5.0786
     5.9590   6.0364   6.0917   6.2914   6.6116   6.7695   6.9595   7.1994
     7.3951   7.8659   7.9623   8.0775   8.3208   8.5945   8.6490   8.8843
     9.0297   9.1550   9.2353   9.5090   9.7270   9.8445  10.0723  10.2008

          k =-0.0799 0.2465-0.4836 (  4082 PWs)   bands (ev):

   -37.0095 -37.0095 -36.9802 -36.9802 -15.4623 -15.4623 -15.4265 -15.4265
   -15.3033 -15.3033 -15.0820 -15.0820 -15.0115 -15.0115 -14.9681 -14.9681
    -6.1989  -6.1989  -5.9333  -5.9333  -5.3348  -5.3348  -5.2276  -5.2276
     6.1827   6.1827   6.5103   6.5103   6.8062   6.8062   7.1641   7.1641
     7.3277   7.3277   7.8170   7.8170   8.4902   8.4902   8.5797   8.5797
     8.8616   8.8616   9.5240   9.5240   9.7712   9.7712   9.9322   9.9322

          k = 0.0000-0.4929 0.0000 (  4096 PWs)   bands (ev):

   -37.0174 -37.0174 -36.9723 -36.9723 -15.5098 -15.5098 -15.3534 -15.3534
   -15.3006 -15.3006 -15.1106 -15.1106 -15.0706 -15.0706 -14.9091 -14.9091
    -6.2350  -6.2350  -5.7859  -5.7859  -5.4220  -5.4220  -5.2463  -5.2463
     5.8390   5.8390   6.3513   6.3513   6.7681   6.7681   6.9568   6.9568
     7.2614   7.2614   8.1151   8.1151   8.5245   8.5245   8.9118   8.9118
     9.2802   9.2802   9.5001   9.5001   9.6908   9.6908  10.0982  10.0982

          k = 0.0399-0.4929 0.2418 (  4094 PWs)   bands (ev):

   -37.0123 -37.0123 -36.9774 -36.9774 -15.4829 -15.4829 -15.3774 -15.3774
   -15.3171 -15.3171 -15.1080 -15.1080 -15.0382 -15.0382 -14.9331 -14.9331
    -6.1842  -6.1842  -5.8750  -5.8750  -5.3758  -5.3758  -5.2530  -5.2530
     6.0619   6.0619   6.3926   6.3926   6.7445   6.7445   7.1452   7.1452
     7.3664   7.3664   7.8765   7.8765   8.4154   8.4154   8.8576   8.8576
     9.0727   9.0727   9.4438   9.4438   9.7186   9.7186  10.0077  10.0077

          k =-0.0799-0.4929-0.4836 (  4072 PWs)   bands (ev):

   -37.0050 -37.0050 -36.9847 -36.9847 -15.4385 -15.4385 -15.4230 -15.4230
   -15.3173 -15.3173 -15.1162 -15.1162 -15.0037 -15.0037 -14.9606 -14.9606
    -6.0542  -6.0542  -6.0376  -6.0376  -5.2990  -5.2990  -5.2961  -5.2961
     6.3872   6.3872   6.4012   6.4012   6.9408   6.9408   6.9481   6.9481
     7.7085   7.7085   7.7768   7.7768   8.1227   8.1227   8.4509   8.4509
     9.0415   9.0415   9.6222   9.6222   9.6400   9.6400   9.8843   9.8843

          k = 0.2534 0.0000 0.0003 (  4072 PWs)   bands (ev):

   -37.0350 -36.9859 -36.9855 -36.9728 -15.5959 -15.5834 -15.5437 -15.3178
   -15.1622 -15.1468 -15.1273 -15.0979 -15.0109 -15.0097 -14.9582 -14.9133
    -6.8266  -5.9459  -5.9308  -5.8668  -5.2595  -5.2581  -5.2022  -5.0669
     5.6534   5.7886   5.9555   6.1436   6.1700   6.6529   7.1744   7.2466
     7.6687   7.7078   8.1478   8.2640   8.2781   8.6119   8.8952   8.9808
     9.1632   9.2657   9.4102   9.7062   9.8445   9.9531  10.0189  10.4735

          k = 0.2934 0.0000 0.2421 (  4075 PWs)   bands (ev):

   -37.0218 -36.9961 -36.9898 -36.9718 -15.5004 -15.4864 -15.4862 -15.3917
   -15.2515 -15.1803 -15.1484 -15.0819 -15.0283 -15.0153 -14.9677 -14.9656
    -6.5402  -5.8949  -5.8804  -5.8100  -5.4130  -5.4012  -5.2923  -5.1335
     5.7692   6.0837   6.2352   6.3033   6.4590   6.6959   7.2775   7.3036
     7.5228   7.6125   7.6213   7.9181   8.3308   8.5922   8.9006   9.0788
     9.0976   9.1747   9.2488   9.4073   9.6028   9.8376  10.1172  10.3859

          k = 0.1735 0.0000-0.4833 (  4086 PWs)   bands (ev):

   -37.0159 -36.9997 -36.9900 -36.9737 -15.5381 -15.4548 -15.4052 -15.3907
   -15.3323 -15.3078 -15.1192 -15.0846 -14.9919 -14.9855 -14.9601 -14.9363
    -6.2813  -6.1096  -5.8948  -5.8283  -5.4374  -5.3432  -5.2532  -5.2324
     6.0679   6.0781   6.3789   6.4371   6.5987   6.8097   6.9150   7.3448
     7.5064   7.6038   7.7449   7.9671   8.2650   8.3346   8.7181   8.8194
     8.8710   9.2110   9.2974   9.6072   9.6736   9.8295  10.0101  10.1281

          k = 0.2135 0.0000-0.2415 (  4079 PWs)   bands (ev):

   -37.0324 -36.9871 -36.9807 -36.9791 -15.6028 -15.5795 -15.5128 -15.3799
   -15.1923 -15.1686 -15.1254 -15.0941 -14.9996 -14.9885 -14.9602 -14.8664
    -6.7253  -5.9849  -5.9161  -5.8852  -5.3163  -5.2102  -5.2062  -5.1275
     5.7785   6.0029   6.0084   6.1368   6.3176   6.9338   6.9396   7.1941
     7.3160   7.9833   8.0289   8.3002   8.4885   8.5606   8.6548   9.0148
     9.1222   9.2208   9.3212   9.5777   9.6351   9.8804  10.0097  10.3568

          k = 0.2534 0.2465 0.0003 (  4075 PWs)   bands (ev):

   -37.0286 -36.9963 -36.9803 -36.9741 -15.5866 -15.5201 -15.5013 -15.3558
   -15.2386 -15.1794 -15.1103 -15.0996 -15.0332 -14.9882 -14.9658 -14.9090
    -6.6451  -5.9589  -5.8671  -5.8310  -5.4284  -5.2753  -5.2029  -5.1587
     5.6727   6.0636   6.1274   6.2988   6.4655   6.6396   7.0381   7.2179
     7.5406   7.7297   7.7452   8.2905   8.4352   8.5890   8.8081   8.9679
     9.0641   9.3126   9.4617   9.5235   9.7155   9.8299   9.9399  10.2216

          k = 0.2934 0.2465 0.2421 (  4088 PWs)   bands (ev):

   -37.0169 -36.9978 -36.9890 -36.9757 -15.5227 -15.4936 -15.4712 -15.3320
   -15.2812 -15.2752 -15.1144 -15.0557 -15.0295 -15.0065 -14.9844 -14.9420
    -6.4127  -6.0019  -5.9267  -5.8162  -5.3647  -5.3517  -5.3206  -5.1747
     5.8477   6.2716   6.3679   6.4156   6.6068   6.8634   7.0134   7.1005
     7.4564   7.5784   7.8496   8.0303   8.3628   8.5826   8.6886   8.8109
     9.0359   9.1911   9.3666   9.4194   9.4968   9.8028   9.8477  10.2144

          k = 0.1735 0.2465-0.4833 (  4092 PWs)   bands (ev):

   -37.0124 -36.9982 -36.9915 -36.9772 -15.5806 -15.5329 -15.4560 -15.4112
   -15.2623 -15.2520 -15.0798 -15.0358 -14.9986 -14.9857 -14.9622 -14.9385
    -6.3411  -6.1166  -6.0430  -5.8379  -5.3877  -5.3739  -5.1947  -5.0820
     6.1073   6.3160   6.3671   6.5152   6.6694   6.7894   6.9917   7.2732
     7.4460   7.5404   7.8183   8.1405   8.2260   8.4757   8.5055   8.8143
     8.8546   9.0721   9.2854   9.4546   9.5918   9.7727   9.8970  10.0750

          k = 0.2135 0.2465-0.2415 (  4078 PWs)   bands (ev):

   -37.0265 -36.9956 -36.9802 -36.9770 -15.6296 -15.5508 -15.5278 -15.3366
   -15.2838 -15.1620 -15.1089 -15.0694 -15.0150 -14.9610 -14.9520 -14.8783
    -6.6307  -6.0700  -5.9133  -5.8390  -5.4021  -5.3636  -5.1133  -5.0431
     5.8641   6.1278   6.1823   6.3152   6.4885   6.8079   6.9209   7.2094
     7.3462   7.6979   7.9194   8.3610   8.4340   8.6466   8.7474   8.9212
     9.0257   9.1569   9.3585   9.4361   9.6364   9.7019   9.9786  10.1612

          k = 0.2534-0.4929 0.0003 (  4076 PWs)   bands (ev):

   -37.0128 -37.0128 -36.9768 -36.9768 -15.5165 -15.5165 -15.3942 -15.3942
   -15.3069 -15.3069 -15.0771 -15.0771 -15.0235 -15.0235 -14.9363 -14.9363
    -6.2248  -6.2248  -5.7942  -5.7942  -5.4529  -5.4529  -5.2168  -5.2168
     5.9468   5.9468   6.5011   6.5011   6.7233   6.7233   7.0516   7.0516
     7.5067   7.5067   7.8693   7.8693   8.5374   8.5374   8.6588   8.6588
     9.2443   9.2443   9.4809   9.4809   9.6833   9.6833   9.9232   9.9232

          k = 0.2934-0.4929 0.2421 (  4092 PWs)   bands (ev):

   -37.0060 -37.0060 -36.9837 -36.9837 -15.5068 -15.5068 -15.4261 -15.4261
   -15.2775 -15.2775 -15.0695 -15.0695 -15.0168 -15.0168 -14.9599 -14.9599
    -6.1317  -6.1317  -5.9673  -5.9673  -5.3545  -5.3545  -5.2328  -5.2328
     6.1418   6.1418   6.5396   6.5396   6.7501   6.7501   7.2181   7.2181
     7.5986   7.5986   7.7068   7.7068   8.4867   8.4867   8.5980   8.5980
     9.0251   9.0251   9.3572   9.3572   9.5913   9.5913   9.9309   9.9309

          k = 0.1735-0.4929-0.4833 (  4086 PWs)   bands (ev):

   -37.0041 -37.0041 -36.9855 -36.9855 -15.5819 -15.5819 -15.4955 -15.4955
   -15.1772 -15.1772 -15.0457 -15.0457 -14.9959 -14.9959 -14.9462 -14.9462
    -6.2910  -6.2910  -6.0018  -6.0018  -5.3157  -5.3157  -5.0783  -5.0783
     6.3379   6.3379   6.5426   6.5426   6.6716   6.6716   7.1327   7.1327
     7.6170   7.6170   7.9409   7.9409   8.2588   8.2588   8.5988   8.5988
     8.9639   8.9639   9.3553   9.3553   9.5606   9.5606   9.9170   9.9170

          k = 0.2135-0.4929-0.2415 (  4082 PWs)   bands (ev):

   -37.0117 -37.0117 -36.9779 -36.9779 -15.6030 -15.6030 -15.4552 -15.4552
   -15.2086 -15.2086 -15.0575 -15.0575 -15.0053 -15.0053 -14.9107 -14.9107
    -6.3491  -6.3491  -5.8937  -5.8937  -5.3733  -5.3733  -5.0731  -5.0731
     6.0739   6.0739   6.4986   6.4986   6.7514   6.7514   6.9955   6.9955
     7.4212   7.4212   8.0313   8.0313   8.3810   8.3810   8.8394   8.8394
     9.1724   9.1724   9.4349   9.4349   9.5324   9.5324   9.9353   9.9353

          k =-0.5069 0.0000-0.0005 (  4096 PWs)   bands (ev):

   -37.0191 -37.0015 -36.9876 -36.9711 -15.5789 -15.4418 -15.3574 -15.3565
   -15.3537 -15.2262 -15.1200 -15.1117 -15.0309 -15.0047 -14.9804 -14.9511
    -6.4757  -5.9482  -5.8903  -5.7228  -5.6130  -5.2922  -5.2069  -5.1711
     5.5238   6.0238   6.1228   6.3072   6.4033   6.5079   7.0647   7.2629
     7.4362   7.6356   8.0136   8.0278   8.4189   8.7814   8.9495   8.9628
     9.0875   9.2415   9.2792   9.6436   9.8177   9.9449  10.1085  10.4327

          k =-0.4669 0.0000 0.2413 (  4077 PWs)   bands (ev):

   -37.0163 -36.9953 -36.9941 -36.9737 -15.5584 -15.4448 -15.4061 -15.4014
   -15.3025 -15.2561 -15.1746 -15.0825 -15.0040 -14.9905 -14.9774 -14.9168
    -6.3728  -5.9733  -5.8624  -5.7364  -5.5475  -5.3282  -5.3254  -5.1921
     5.8670   6.0289   6.2489   6.2735   6.3781   6.5557   6.9496   7.3593
     7.4121   7.7425   7.9131   8.2459   8.2531   8.6764   8.8336   9.0158
     9.0812   9.2194   9.3781   9.4196   9.7026   9.7212   9.9690  10.4248

          k =-0.5867 0.0000-0.4841 (  4098 PWs)   bands (ev):

   -37.0067 -37.0067 -36.9829 -36.9829 -15.5203 -15.5203 -15.3943 -15.3943
   -15.2796 -15.2796 -15.1659 -15.1659 -14.9976 -14.9976 -14.9007 -14.9007
    -6.1366  -6.1366  -5.7953  -5.7953  -5.4178  -5.4178  -5.3282  -5.3282
     6.0769   6.0769   6.4144   6.4144   6.7397   6.7397   6.8979   6.8979
     7.2639   7.2639   8.1985   8.1985   8.5737   8.5737   8.8267   8.8267
     9.2032   9.2032   9.3079   9.3079   9.6139   9.6139  10.0553  10.0553

          k =-0.5069 0.2465-0.0005 (  4084 PWs)   bands (ev):

   -37.0149 -37.0024 -36.9868 -36.9752 -15.5665 -15.4714 -15.4078 -15.3946
   -15.3273 -15.2421 -15.0944 -15.0724 -15.0226 -14.9967 -14.9671 -14.9485
    -6.4177  -5.9411  -5.8651  -5.8159  -5.5794  -5.3678  -5.2106  -5.1507
     5.8143   6.1163   6.1880   6.3596   6.5066   6.8078   7.0195   7.4127
     7.4403   7.6330   7.9465   8.1258   8.3642   8.4578   8.5842   8.7510
     9.0368   9.3862   9.4109   9.4764   9.6829   9.8735   9.8959  10.1582

          k =-0.4669 0.2465 0.2413 (  4088 PWs)   bands (ev):

   -37.0127 -36.9989 -36.9905 -36.9772 -15.5901 -15.5323 -15.4946 -15.4153
   -15.2695 -15.1832 -15.0878 -15.0483 -15.0116 -14.9818 -14.9575 -14.9260
    -6.4042  -6.0154  -5.9712  -5.9195  -5.4052  -5.3438  -5.1857  -5.1114
     6.0487   6.1130   6.2672   6.4132   6.5260   6.7842   7.1268   7.1887
     7.3265   7.6570   8.0610   8.1409   8.4821   8.5282   8.6500   8.8593
     8.9661   9.1698   9.2259   9.3597   9.5167   9.7572   9.9013  10.1690

          k =-0.5867 0.2465-0.4841 (  4096 PWs)   bands (ev):

   -37.0050 -37.0050 -36.9846 -36.9846 -15.5858 -15.5858 -15.5156 -15.5156
   -15.1512 -15.1512 -15.0862 -15.0862 -14.9955 -14.9955 -14.9078 -14.9078
    -6.2717  -6.2717  -5.9933  -5.9933  -5.2617  -5.2617  -5.1555  -5.1555
     6.1538   6.1538   6.5124   6.5124   6.6831   6.6831   6.9835   6.9835
     7.6698   7.6698   8.0537   8.0537   8.3325   8.3325   8.6818   8.6818
     9.1261   9.1261   9.1863   9.1863   9.7622   9.7622   9.8926   9.8926

          k =-0.5069-0.4929-0.0005 (  4080 PWs)   bands (ev):

   -37.0068 -37.0068 -36.9829 -36.9829 -15.5330 -15.5330 -15.4262 -15.4262
   -15.2780 -15.2780 -15.0861 -15.0861 -14.9850 -14.9850 -14.9466 -14.9466
    -6.2148  -6.2148  -5.8028  -5.8028  -5.4759  -5.4759  -5.1947  -5.1947
     6.2514   6.2514   6.5215   6.5215   6.6408   6.6408   6.9940   6.9940
     7.6749   7.6749   7.9497   7.9497   8.4841   8.4841   8.7261   8.7261
     8.9973   8.9973   9.1578   9.1578   9.6083   9.6083   9.9414   9.9414

          k =-0.4669-0.4929 0.2413 (  4080 PWs)   bands (ev):

   -37.0051 -37.0051 -36.9845 -36.9845 -15.5988 -15.5988 -15.5111 -15.5111
   -15.1648 -15.1648 -15.0487 -15.0487 -14.9806 -14.9806 -14.9362 -14.9362
    -6.3020  -6.3020  -6.0019  -6.0019  -5.2716  -5.2716  -5.1119  -5.1119
     6.3334   6.3334   6.4979   6.4979   6.6262   6.6262   7.0450   7.0450
     7.8058   7.8058   8.0241   8.0241   8.1428   8.1428   8.7801   8.7801
     9.0667   9.0667   9.2647   9.2647   9.5077   9.5077   9.8122   9.8122

          k =-0.5867-0.4929-0.4841 (  4092 PWs)   bands (ev):

   -37.0030 -37.0030 -36.9865 -36.9865 -15.6352 -15.6352 -15.5816 -15.5816
   -15.0814 -15.0814 -15.0099 -15.0099 -14.9952 -14.9952 -14.9222 -14.9222
    -6.3781  -6.3781  -6.1247  -6.1247  -5.1475  -5.1475  -5.0363  -5.0363
     6.2698   6.2698   6.5616   6.5616   6.7477   6.7477   7.1267   7.1267
     7.8251   7.8251   7.9067   7.9067   8.3148   8.3148   8.4310   8.4310
     9.0448   9.0448   9.3209   9.3209   9.5055   9.5055   9.8368   9.8368

     highest occupied level (ev):    10.5101

!    total energy              =    -731.80060218 Ry
     estimated scf accuracy    <          2.7E-11 Ry

     The total energy is the sum of the following terms:
     one-electron contribution =    -131.43101892 Ry
     hartree contribution      =     123.00740645 Ry
     xc contribution           =    -131.37238154 Ry
     ewald contribution        =    -515.90541689 Ry
     one-center paw contrib.   =     -76.09919127 Ry

     convergence has been achieved in  18 iterations

     negative rho (up, down):  2.614E-01 0.000E+00

     Forces acting on atoms (cartesian axes, Ry/au):

     atom    1 type  1   force =    -0.00077741   -0.00110317   -0.00076561
     atom    2 type  1   force =    -0.00077741    0.00110317   -0.00076561
     atom    3 type  1   force =     0.00077741   -0.00110317    0.00076561
     atom    4 type  1   force =     0.00077741    0.00110317    0.00076561
     atom    5 type  2   force =    -0.00094200    0.00026779   -0.00093530
     atom    6 type  2   force =    -0.00094200   -0.00026779   -0.00093530
     atom    7 type  2   force =     0.00100989    0.00033496    0.00043004
     atom    8 type  2   force =    -0.00100989    0.00033496   -0.00043004
     atom    9 type  2   force =     0.00100989   -0.00033496    0.00043004
     atom   10 type  2   force =    -0.00100989   -0.00033496   -0.00043004
     atom   11 type  2   force =     0.00094200    0.00026779    0.00093530
     atom   12 type  2   force =     0.00094200   -0.00026779    0.00093530

     Total force =     0.004715     Total SCF correction =     0.000015


     Computing stress (Cartesian axis) and pressure


     negative rho (up, down):  2.614E-01 0.000E+00
          total   stress  (Ry/bohr**3)                   (kbar)     P=       -3.14
  -0.00001993   0.00000000   0.00000046           -2.93        0.00        0.07
   0.00000000  -0.00002285   0.00000000            0.00       -3.36        0.00
   0.00000046   0.00000000  -0.00002132            0.07        0.00       -3.14


     Writing output data file ./out/O2Zr.save/

     init_run     :      6.33s CPU      6.43s WALL (       1 calls)
     electrons    :    175.32s CPU    177.63s WALL (       1 calls)
     forces       :      3.18s CPU      3.19s WALL (       1 calls)
     stress       :      5.59s CPU      5.59s WALL (       1 calls)

     Called by init_run:
     wfcinit      :      4.02s CPU      4.08s WALL (       1 calls)
     potinit      :      0.81s CPU      0.82s WALL (       1 calls)
     hinit0       :      1.37s CPU      1.37s WALL (       1 calls)

     Called by electrons:
     c_bands      :    156.78s CPU    158.75s WALL (      18 calls)
     sum_band     :     13.75s CPU     14.06s WALL (      18 calls)
     v_of_rho     :      0.73s CPU      0.75s WALL (      19 calls)
     newd         :      2.07s CPU      2.09s WALL (      19 calls)
     PAW_pot      :      2.08s CPU      2.08s WALL (      19 calls)
     mix_rho      :      0.10s CPU      0.11s WALL (      18 calls)

     Called by c_bands:
     init_us_2    :      0.70s CPU      0.70s WALL (     585 calls)
     cegterg      :    152.13s CPU    154.09s WALL (     270 calls)

     Called by *egterg:
     cdiaghg      :      8.71s CPU      8.81s WALL (    1146 calls)
     h_psi        :     66.44s CPU     68.20s WALL (    1161 calls)
     s_psi        :     20.96s CPU     20.98s WALL (    1161 calls)
     g_psi        :      0.24s CPU      0.24s WALL (     876 calls)

     Called by h_psi:
     h_psi:calbec :     20.69s CPU     20.77s WALL (    1161 calls)
     vloc_psi     :     24.57s CPU     26.24s WALL (    1161 calls)
     add_vuspsi   :     21.02s CPU     21.03s WALL (    1161 calls)

     General routines
     calbec       :     29.32s CPU     29.43s WALL (    1506 calls)
     fft          :      0.40s CPU      0.43s WALL (     270 calls)
     ffts         :      0.02s CPU      0.02s WALL (      37 calls)
     fftw         :     24.35s CPU     25.97s WALL (   91370 calls)
     interpolate  :      0.05s CPU      0.05s WALL (      19 calls)

     Parallel routines
     fft_scatt_xy :      3.16s CPU      3.37s WALL (   91677 calls)
     fft_scatt_yz :      5.66s CPU      6.12s WALL (   91677 calls)

     PWSCF        :   3m10.85s CPU   3m13.35s WALL


   This run was terminated on:   4:17:29   1Jul2026            

=------------------------------------------------------------------------------=
   JOB DONE.
=------------------------------------------------------------------------------=
