
     Program PHONON v.6.7MaX starts on  2Jul2026 at 23:10:26 

     This program is part of the open-source Quantum ESPRESSO suite
     for quantum simulation of materials; please cite
         "P. Giannozzi et al., J. Phys.:Condens. Matter 21 395502 (2009);
         "P. Giannozzi et al., J. Phys.:Condens. Matter 29 465901 (2017);
          URL http://www.quantum-espresso.org", 
     in publications or presentations arising from this work. More details at
     http://www.quantum-espresso.org/quote

     Parallel version (MPI), running on     8 processors

     MPI processes distributed on     1 nodes
     R & G space division:  proc/nbgrp/npool/nimage =       8
     Waiting for input...
     Reading input from standard input
      Title line not specified: using 'default'.

     Reading xml data from directory:

     ./out/CaO4S.save/
     file Ca.pbe-spn-kjpaw_psl.1.0.0.UPF: wavefunction(s)  3S renormalized
     file O.pbe-n-kjpaw_psl.0.1.UPF: wavefunction(s)  2P renormalized

     IMPORTANT: XC functional enforced from input :
     Exchange-correlation= PBE
                           (   1   4   3   4   0   0   0)
     Any further DFT definition will be discarded
     Please, verify this is what you really want


     Parallelization info
     --------------------
     sticks:   dense  smooth     PW     G-vecs:    dense   smooth      PW
     Min         307     153     44                17290     6115     964
     Max         309     154     45                17294     6118     967
     Sum        2463    1231    359               138331    48933    7731


     Check: negative core charge=   -0.000003
     Reading collected, re-writing distributed wavefunctions
        1 /   1 q-points for this run, from  1 to  1:
       N       xq(1)         xq(2)         xq(3) 
       1   0.000000000   0.000000000   0.000000000


     Calculation of q =    0.0000000   0.0000000   0.0000000
 end of file reached, closing tag not found
warning: file closed at level 1 with tag Root open
     Message from routine ph_restart_set_filename :
     cannot open file for reading or writing
     Message from routine ph_restart_set_filename :
     cannot open file for reading or writing
     Message from routine ph_restart_set_filename :
     cannot open file for reading or writing
     Message from routine ph_restart_set_filename :
     cannot open file for reading or writing
     Message from routine ph_restart_set_filename :
     cannot open file for reading or writing
     Message from routine ph_restart_set_filename :
     cannot open file for reading or writing
     Message from routine ph_restart_set_filename :
     cannot open file for reading or writing
     Message from routine ph_restart_set_filename :
     cannot open file for reading or writing
     Message from routine ph_restart_set_filename :
     cannot open file for reading or writing
     Message from routine ph_restart_set_filename :
     cannot open file for reading or writing
     Message from routine ph_restart_set_filename :
     cannot open file for reading or writing
     Message from routine ph_restart_set_filename :
     cannot open file for reading or writing
     Message from routine ph_restart_set_filename :
     cannot open file for reading or writing
     Message from routine ph_restart_set_filename :
     cannot open file for reading or writing
     Message from routine ph_restart_set_filename :
     cannot open file for reading or writing
     Message from routine ph_restart_set_filename :
     cannot open file for reading or writing
     Message from routine ph_restart_set_filename :
     cannot open file for reading or writing
     Message from routine ph_restart_set_filename :
     cannot open file for reading or writing
     Message from routine ph_restart_set_filename :
     cannot open file for reading or writing
     Message from routine ph_restart_set_filename :
     cannot open file for reading or writing
     Message from routine ph_restart_set_filename :
     cannot open file for reading or writing
     Message from routine ph_restart_set_filename :
     cannot open file for reading or writing
     Message from routine ph_restart_set_filename :
     cannot open file for reading or writing
     Message from routine ph_restart_set_filename :
     cannot open file for reading or writing
     Message from routine ph_restart_set_filename :
     cannot open file for reading or writing
     Message from routine ph_restart_set_filename :
     cannot open file for reading or writing
     Message from routine ph_restart_set_filename :
     cannot open file for reading or writing
     Message from routine ph_restart_set_filename :
     cannot open file for reading or writing
     Message from routine ph_restart_set_filename :
     cannot open file for reading or writing
     Message from routine ph_restart_set_filename :
     cannot open file for reading or writing
     Message from routine ph_restart_set_filename :
     cannot open file for reading or writing
     Message from routine ph_restart_set_filename :
     cannot open file for reading or writing
     Message from routine ph_restart_set_filename :
     cannot open file for reading or writing
     Message from routine ph_restart_set_filename :
     cannot open file for reading or writing
     Message from routine ph_restart_set_filename :
     cannot open file for reading or writing
     Message from routine ph_restart_set_filename :
     cannot open file for reading or writing

     Restart in Electric Field calculation

     default                                                                    

     bravais-lattice index     =            0
     lattice parameter (alat)  =       8.8276  a.u.
     unit-cell volume          =    1024.3165 (a.u.)^3
     number of atoms/cell      =           12
     number of atomic types    =            3
     kinetic-energy cut-off    =      50.0000  Ry
     charge density cut-off    =     400.0000  Ry
     convergence threshold     =      1.0E-12
     beta                      =       0.7000
     number of iterations used =            4
     Exchange-correlation= PBE
                           (   1   4   3   4   0   0   0)


     celldm(1)=    8.82760  celldm(2)=    0.00000  celldm(3)=    0.00000
     celldm(4)=    0.00000  celldm(5)=    0.00000  celldm(6)=    0.00000

     crystal axes: (cart. coord. in units of alat)
               a(1) = (  1.0000 -0.0042  0.0000 )  
               a(2) = ( -0.1143  0.9934  0.0000 )  
               a(3) = (  0.0000  0.0000  1.4996 )  

     reciprocal axes: (cart. coord. in units 2 pi/alat)
               b(1) = (  1.0005  0.1152 -0.0000 )  
               b(2) = (  0.0042  1.0071 -0.0000 )  
               b(3) = ( -0.0000 -0.0000  0.6668 )  


     Atoms inside the unit cell: 

     Cartesian axes

     site n.  atom      mass           positions (alat units)
        1     Ca  40.0780   tau(    1) = (    0.31082    0.34718    1.12470  )
        2     Ca  40.0780   tau(    2) = (    0.57483    0.64208    0.37490  )
        3     S   32.0600   tau(    3) = (    0.75073    0.83856    1.12470  )
        4     S   32.0600   tau(    4) = (    0.13492    0.15070    0.37490  )
        5     O   15.9990   tau(    5) = (    0.06494    0.81238    1.12470  )
        6     O   15.9990   tau(    6) = (    0.82070    0.17688    0.37490  )
        7     O   15.9990   tau(    7) = (    0.80028    0.15406    1.12470  )
        8     O   15.9990   tau(    8) = (    0.08537    0.83520    0.37490  )
        9     O   15.9990   tau(    9) = (    0.26112    0.29167    0.12226  )
       10     O   15.9990   tau(   10) = (    0.62453    0.69759    0.87207  )
       11     O   15.9990   tau(   11) = (    0.26112    0.29167    0.62754  )
       12     O   15.9990   tau(   12) = (    0.62453    0.69759    1.37734  )

     Computing dynamical matrix for 
                    q = (   0.0000000   0.0000000   0.0000000 )

      2 Sym.Ops. (with q -> -q+G )


     G cutoff =  789.5608  (  17291 G-vectors)     FFT grid: ( 60, 60, 90)
     G cutoff =  394.7804  (   6116 G-vectors)  smooth grid: ( 40, 40, 60)
     number of k points=    36
                       cart. coord. in units 2pi/alat
        k(    1) = (   0.0000000   0.0000000   0.0000000), wk =   0.0312500
        k(    2) = (   0.0000000   0.0000000   0.1667106), wk =   0.0625000
        k(    3) = (   0.0000000   0.0000000  -0.3334212), wk =   0.0312500
        k(    4) = (   0.0010532   0.2517717   0.0000000), wk =   0.0625000
        k(    5) = (   0.0010532   0.2517717   0.1667106), wk =   0.0625000
        k(    6) = (   0.0010532   0.2517717  -0.3334212), wk =   0.0625000
        k(    7) = (   0.0010532   0.2517717  -0.1667106), wk =   0.0625000
        k(    8) = (  -0.0021065  -0.5035433   0.0000000), wk =   0.0312500
        k(    9) = (  -0.0021065  -0.5035433   0.1667106), wk =   0.0625000
        k(   10) = (  -0.0021065  -0.5035433  -0.3334212), wk =   0.0312500
        k(   11) = (   0.2501226   0.0287884   0.0000000), wk =   0.0625000
        k(   12) = (   0.2501226   0.0287884   0.1667106), wk =   0.0625000
        k(   13) = (   0.2501226   0.0287884  -0.3334212), wk =   0.0625000
        k(   14) = (   0.2501226   0.0287884  -0.1667106), wk =   0.0625000
        k(   15) = (   0.2511758   0.2805601   0.0000000), wk =   0.0625000
        k(   16) = (   0.2511758   0.2805601   0.1667106), wk =   0.0625000
        k(   17) = (   0.2511758   0.2805601  -0.3334212), wk =   0.0625000
        k(   18) = (   0.2511758   0.2805601  -0.1667106), wk =   0.0625000
        k(   19) = (   0.2480162  -0.4747549   0.0000000), wk =   0.0625000
        k(   20) = (   0.2480162  -0.4747549   0.1667106), wk =   0.0625000
        k(   21) = (   0.2480162  -0.4747549  -0.3334212), wk =   0.0625000
        k(   22) = (   0.2480162  -0.4747549  -0.1667106), wk =   0.0625000
        k(   23) = (   0.2490694  -0.2229832   0.0000000), wk =   0.0625000
        k(   24) = (   0.2490694  -0.2229832   0.1667106), wk =   0.0625000
        k(   25) = (   0.2490694  -0.2229832  -0.3334212), wk =   0.0625000
        k(   26) = (   0.2490694  -0.2229832  -0.1667106), wk =   0.0625000
        k(   27) = (  -0.5002452  -0.0575769   0.0000000), wk =   0.0312500
        k(   28) = (  -0.5002452  -0.0575769   0.1667106), wk =   0.0625000
        k(   29) = (  -0.5002452  -0.0575769  -0.3334212), wk =   0.0312500
        k(   30) = (  -0.4991920   0.1941948   0.0000000), wk =   0.0625000
        k(   31) = (  -0.4991920   0.1941948   0.1667106), wk =   0.0625000
        k(   32) = (  -0.4991920   0.1941948  -0.3334212), wk =   0.0625000
        k(   33) = (  -0.4991920   0.1941948  -0.1667106), wk =   0.0625000
        k(   34) = (  -0.5023517  -0.5611202   0.0000000), wk =   0.0312500
        k(   35) = (  -0.5023517  -0.5611202   0.1667106), wk =   0.0625000
        k(   36) = (  -0.5023517  -0.5611202  -0.3334212), wk =   0.0312500

     PseudoPot. # 1 for Ca read from file:
     /data/pseudopotentials/Ca.pbe-spn-kjpaw_psl.1.0.0.UPF
     MD5 check sum: 1e11ab70c77b02a7d7d676f41d47b751
     Pseudo is Projector augmented-wave + core cor, Zval = 10.0
     Generated using &quot;atomic&quot; code by A. Dal Corso  v.6.4.1
     Shape of augmentation charge: PSQ
     Using radial grid of 1169 points,  6 beta functions with: 
                l(1) =   0
                l(2) =   0
                l(3) =   1
                l(4) =   1
                l(5) =   2
                l(6) =   2
     Q(r) pseudized with 0 coefficients 


     PseudoPot. # 2 for S  read from file:
     /data/pseudopotentials/s_pbe_v1.4.uspp.F.UPF
     MD5 check sum: 88d86576ff6df21479756cfb9bdac1df
     Pseudo is Ultrasoft + core correction, Zval =  6.0
     Generated by new atomic code, or converted to UPF format
     Using radial grid of  907 points,  6 beta functions with: 
                l(1) =   0
                l(2) =   0
                l(3) =   1
                l(4) =   1
                l(5) =   2
                l(6) =   2
     Q(r) pseudized with  8 coefficients,  rinner =    1.300   1.300   1.300
                                                       1.300   1.300

     PseudoPot. # 3 for O  read from file:
     /data/pseudopotentials/O.pbe-n-kjpaw_psl.0.1.UPF
     MD5 check sum: 833c495a5d0f9b75bf046115549bffff
     Pseudo is Projector augmented-wave + core cor, Zval =  6.0
     Generated using &quot;atomic&quot; code by A. Dal Corso  v.6.3
     Shape of augmentation charge: BESSEL
     Using radial grid of 1095 points,  4 beta functions with: 
                l(1) =   0
                l(2) =   0
                l(3) =   1
                l(4) =   1
     Q(r) pseudized with 0 coefficients 


     Mode symmetry, C_1 (1)     point group:


     Electric field:
     Dielectric constant
     Born effective charges as d Force / d E


     Atomic displacements:
     There are   36 irreducible representations

     Representation     1      1 modes -  To be done

     Representation     2      1 modes -  To be done

     Representation     3      1 modes -  To be done

     Representation     4      1 modes -  To be done

     Representation     5      1 modes -  To be done

     Representation     6      1 modes -  To be done

     Representation     7      1 modes -  To be done

     Representation     8      1 modes -  To be done

     Representation     9      1 modes -  To be done

     Representation    10      1 modes -  To be done

     Representation    11      1 modes -  To be done

     Representation    12      1 modes -  To be done

     Representation    13      1 modes -  To be done

     Representation    14      1 modes -  To be done

     Representation    15      1 modes -  To be done

     Representation    16      1 modes -  To be done

     Representation    17      1 modes -  To be done

     Representation    18      1 modes -  To be done

     Representation    19      1 modes -  To be done

     Representation    20      1 modes -  To be done

     Representation    21      1 modes -  To be done

     Representation    22      1 modes -  To be done

     Representation    23      1 modes -  To be done

     Representation    24      1 modes -  To be done

     Representation    25      1 modes -  To be done

     Representation    26      1 modes -  To be done

     Representation    27      1 modes -  To be done

     Representation    28      1 modes -  To be done

     Representation    29      1 modes -  To be done

     Representation    30      1 modes -  To be done

     Representation    31      1 modes -  To be done

     Representation    32      1 modes -  To be done

     Representation    33      1 modes -  To be done

     Representation    34      1 modes -  To be done

     Representation    35      1 modes -  To be done

     Representation    36      1 modes -  To be done


     PHONON       :   1m 9.91s CPU   1m12.31s WALL


     Electric Fields Calculation

     End of electric fields calculation

          Dielectric constant in cartesian axis 

          (       2.702622082       0.104971113      -0.000001368 )
          (       0.104971115       2.725895254      -0.000000841 )
          (      -0.000001369      -0.000000842       2.640575673 )

          Effective charges (d Force / dE) in cartesian axis

           atom      1   Ca 
      Ex  (        1.28063       -1.89543        1.17010 )
      Ey  (     -318.40588     -520.92564      263.89633 )
      Ez  (     -298.03689     -485.31841      250.25547 )
           atom      2   Ca 
      Ex  (       -0.38682       -0.51852        2.65715 )
      Ey  (     -335.70531     -525.10369      268.96521 )
      Ez  (     -304.57087     -475.60727      247.40894 )
           atom      3   S  
      Ex  (        3.22538       -0.08359       -1.04724 )
      Ey  (        0.47689        3.97217       -1.23039 )
      Ez  (       -0.08884       -0.04106        3.37759 )
           atom      4   S  
      Ex  (        3.69080        0.24368       -0.11893 )
      Ey  (        0.19557        3.43628        0.65262 )
      Ez  (       -0.09545       -0.24022        3.81631 )
           atom      5   O  
      Ex  (      -15.83166      -17.27366       17.24807 )
      Ey  (      -95.10990     -117.95029      121.81853 )
      Ez  (      -79.67763      -97.16070      100.96670 )
           atom      6   O  
      Ex  (      -14.55030      -24.30111       24.34335 )
      Ey  (      -64.59640     -131.70967      132.73246 )
      Ez  (      -52.94166     -106.44754      107.82890 )
           atom      7   O  
      Ex  (      -43.84275      -40.33871       41.29152 )
      Ey  (     -128.00495     -111.47460      131.81453 )
      Ez  (      -97.63575      -56.28295       98.79892 )
           atom      8   O  
      Ex  (       -2.10310        0.73625        2.19037 )
      Ey  (     -139.28494      -76.37266      136.50472 )
      Ez  (      -69.94216      -37.19819       67.69363 )
           atom      9   O  
      Ex  (       -1.61264       -1.81848        0.05153 )
      Ey  (     -103.03731     -101.12344       81.30480 )
      Ez  (      -50.25665      -48.95746       38.95039 )
           atom     10   O  
      Ex  (      -41.64254      -78.46991       53.87440 )
      Ey  (     -131.97345     -136.06692      156.63301 )
      Ez  (      -12.09818      -12.07521       12.40801 )
           atom     11   O  
      Ex  (      -95.69076      -95.30830       82.95980 )
      Ey  (     -155.58546     -157.23112      135.54102 )
      Ez  (      -13.20769       -1.67385        9.28102 )
           atom     12   O  
      Ex  (      -69.17372      -64.45045       35.28352 )
      Ey  (     -106.99048     -101.70180       55.47469 )
      Ez  (        0.59197        0.70988       -2.95714 )


     Representation #   1 mode #   1

     Self-consistent Calculation

      iter #   1 total cpu time :  1109.9 secs   av.it.:   8.9
      thresh= 1.000E-02 alpha_mix =  0.700 |ddv_scf|^2 =  8.747E-07

      iter #   2 total cpu time :  1198.4 secs   av.it.:  17.6
      thresh= 9.352E-05 alpha_mix =  0.700 |ddv_scf|^2 =  2.329E-07

      iter #   3 total cpu time :  1287.5 secs   av.it.:  17.9
      thresh= 4.825E-05 alpha_mix =  0.700 |ddv_scf|^2 =  1.917E-08

      iter #   4 total cpu time :  1374.4 secs   av.it.:  18.1
      thresh= 1.385E-05 alpha_mix =  0.700 |ddv_scf|^2 =  3.971E-10

      iter #   5 total cpu time :  1461.5 secs   av.it.:  18.2
      thresh= 1.993E-06 alpha_mix =  0.700 |ddv_scf|^2 =  3.905E-11

      iter #   6 total cpu time :  1550.1 secs   av.it.:  18.2
      thresh= 6.249E-07 alpha_mix =  0.700 |ddv_scf|^2 =  6.373E-12

      iter #   7 total cpu time :  1644.9 secs   av.it.:  18.7
      thresh= 2.525E-07 alpha_mix =  0.700 |ddv_scf|^2 =  1.249E-12

      iter #   8 total cpu time :  1739.1 secs   av.it.:  18.8
      thresh= 1.118E-07 alpha_mix =  0.700 |ddv_scf|^2 =  1.255E-13

     End of self-consistent calculation

     Convergence has been achieved 


     Representation #   2 mode #   2

     Self-consistent Calculation

      iter #   1 total cpu time :  1794.1 secs   av.it.:   8.9
      thresh= 1.000E-02 alpha_mix =  0.700 |ddv_scf|^2 =  8.893E-07

      iter #   2 total cpu time :  1883.3 secs   av.it.:  17.7
      thresh= 9.430E-05 alpha_mix =  0.700 |ddv_scf|^2 =  2.470E-07

      iter #   3 total cpu time :  1973.5 secs   av.it.:  18.0
      thresh= 4.970E-05 alpha_mix =  0.700 |ddv_scf|^2 =  1.986E-08

      iter #   4 total cpu time :  2064.5 secs   av.it.:  18.2
      thresh= 1.409E-05 alpha_mix =  0.700 |ddv_scf|^2 =  4.284E-10

      iter #   5 total cpu time :  2156.3 secs   av.it.:  18.2
      thresh= 2.070E-06 alpha_mix =  0.700 |ddv_scf|^2 =  4.156E-11

      iter #   6 total cpu time :  2248.3 secs   av.it.:  18.2
      thresh= 6.447E-07 alpha_mix =  0.700 |ddv_scf|^2 =  6.567E-12

      iter #   7 total cpu time :  2342.6 secs   av.it.:  18.9
      thresh= 2.563E-07 alpha_mix =  0.700 |ddv_scf|^2 =  1.274E-12

      iter #   8 total cpu time :  2436.7 secs   av.it.:  18.8
      thresh= 1.129E-07 alpha_mix =  0.700 |ddv_scf|^2 =  1.204E-13

     End of self-consistent calculation

     Convergence has been achieved 


     Representation #   3 mode #   3

     Self-consistent Calculation

      iter #   1 total cpu time :  2492.8 secs   av.it.:   8.8
      thresh= 1.000E-02 alpha_mix =  0.700 |ddv_scf|^2 =  2.736E-06

      iter #   2 total cpu time :  2579.7 secs   av.it.:  17.2
      thresh= 1.654E-04 alpha_mix =  0.700 |ddv_scf|^2 =  3.499E-06

      iter #   3 total cpu time :  2662.2 secs   av.it.:  16.2
      thresh= 1.871E-04 alpha_mix =  0.700 |ddv_scf|^2 =  8.155E-08

      iter #   4 total cpu time :  2749.9 secs   av.it.:  17.3
      thresh= 2.856E-05 alpha_mix =  0.700 |ddv_scf|^2 =  2.852E-09

      iter #   5 total cpu time :  2837.0 secs   av.it.:  17.2
      thresh= 5.340E-06 alpha_mix =  0.700 |ddv_scf|^2 =  1.052E-10

      iter #   6 total cpu time :  2927.1 secs   av.it.:  18.1
      thresh= 1.026E-06 alpha_mix =  0.700 |ddv_scf|^2 =  3.277E-11

      iter #   7 total cpu time :  3015.4 secs   av.it.:  17.7
      thresh= 5.725E-07 alpha_mix =  0.700 |ddv_scf|^2 =  3.590E-12

      iter #   8 total cpu time :  3102.3 secs   av.it.:  17.2
      thresh= 1.895E-07 alpha_mix =  0.700 |ddv_scf|^2 =  1.815E-14

     End of self-consistent calculation

     Convergence has been achieved 


     Representation #   4 mode #   4

     Self-consistent Calculation

      iter #   1 total cpu time :  3156.5 secs   av.it.:   8.9
      thresh= 1.000E-02 alpha_mix =  0.700 |ddv_scf|^2 =  8.747E-07

      iter #   2 total cpu time :  3244.6 secs   av.it.:  17.6
      thresh= 9.352E-05 alpha_mix =  0.700 |ddv_scf|^2 =  2.329E-07

      iter #   3 total cpu time :  3333.8 secs   av.it.:  17.9
      thresh= 4.825E-05 alpha_mix =  0.700 |ddv_scf|^2 =  1.917E-08

      iter #   4 total cpu time :  3424.6 secs   av.it.:  18.1
      thresh= 1.385E-05 alpha_mix =  0.700 |ddv_scf|^2 =  3.971E-10

      iter #   5 total cpu time :  3515.9 secs   av.it.:  18.2
      thresh= 1.993E-06 alpha_mix =  0.700 |ddv_scf|^2 =  3.905E-11

      iter #   6 total cpu time :  3606.8 secs   av.it.:  18.2
      thresh= 6.249E-07 alpha_mix =  0.700 |ddv_scf|^2 =  6.373E-12

      iter #   7 total cpu time :  3699.5 secs   av.it.:  18.7
      thresh= 2.525E-07 alpha_mix =  0.700 |ddv_scf|^2 =  1.249E-12

      iter #   8 total cpu time :  3792.3 secs   av.it.:  18.8
      thresh= 1.118E-07 alpha_mix =  0.700 |ddv_scf|^2 =  1.255E-13

     End of self-consistent calculation

     Convergence has been achieved 


     Representation #   5 mode #   5

     Self-consistent Calculation

      iter #   1 total cpu time :  3846.5 secs   av.it.:   8.9
      thresh= 1.000E-02 alpha_mix =  0.700 |ddv_scf|^2 =  8.893E-07

      iter #   2 total cpu time :  3934.7 secs   av.it.:  17.7
      thresh= 9.430E-05 alpha_mix =  0.700 |ddv_scf|^2 =  2.470E-07

      iter #   3 total cpu time :  4024.0 secs   av.it.:  18.0
      thresh= 4.970E-05 alpha_mix =  0.700 |ddv_scf|^2 =  1.986E-08

      iter #   4 total cpu time :  4114.2 secs   av.it.:  18.2
      thresh= 1.409E-05 alpha_mix =  0.700 |ddv_scf|^2 =  4.284E-10

      iter #   5 total cpu time :  4204.7 secs   av.it.:  18.2
      thresh= 2.070E-06 alpha_mix =  0.700 |ddv_scf|^2 =  4.156E-11

      iter #   6 total cpu time :  4295.0 secs   av.it.:  18.2
      thresh= 6.447E-07 alpha_mix =  0.700 |ddv_scf|^2 =  6.567E-12

      iter #   7 total cpu time :  4388.0 secs   av.it.:  18.9
      thresh= 2.563E-07 alpha_mix =  0.700 |ddv_scf|^2 =  1.274E-12

      iter #   8 total cpu time :  4480.9 secs   av.it.:  18.8
      thresh= 1.129E-07 alpha_mix =  0.700 |ddv_scf|^2 =  1.204E-13

     End of self-consistent calculation

     Convergence has been achieved 


     Representation #   6 mode #   6

     Self-consistent Calculation

      iter #   1 total cpu time :  4536.3 secs   av.it.:   8.8
      thresh= 1.000E-02 alpha_mix =  0.700 |ddv_scf|^2 =  2.736E-06

      iter #   2 total cpu time :  4618.4 secs   av.it.:  17.2
      thresh= 1.654E-04 alpha_mix =  0.700 |ddv_scf|^2 =  3.499E-06

      iter #   3 total cpu time :  4694.8 secs   av.it.:  16.2
      thresh= 1.871E-04 alpha_mix =  0.700 |ddv_scf|^2 =  8.155E-08

      iter #   4 total cpu time :  4776.2 secs   av.it.:  17.3
      thresh= 2.856E-05 alpha_mix =  0.700 |ddv_scf|^2 =  2.852E-09

      iter #   5 total cpu time :  4857.2 secs   av.it.:  17.2
      thresh= 5.340E-06 alpha_mix =  0.700 |ddv_scf|^2 =  1.052E-10

      iter #   6 total cpu time :  4941.1 secs   av.it.:  18.1
      thresh= 1.026E-06 alpha_mix =  0.700 |ddv_scf|^2 =  3.277E-11

      iter #   7 total cpu time :  5023.4 secs   av.it.:  17.7
      thresh= 5.725E-07 alpha_mix =  0.700 |ddv_scf|^2 =  3.590E-12

      iter #   8 total cpu time :  5104.5 secs   av.it.:  17.2
      thresh= 1.895E-07 alpha_mix =  0.700 |ddv_scf|^2 =  1.815E-14

     End of self-consistent calculation

     Convergence has been achieved 


     Representation #   7 mode #   7

     Self-consistent Calculation

      iter #   1 total cpu time :  5153.5 secs   av.it.:   8.7
      thresh= 1.000E-02 alpha_mix =  0.700 |ddv_scf|^2 =  1.690E-07

      iter #   2 total cpu time :  5240.6 secs   av.it.:  18.8
      thresh= 4.112E-05 alpha_mix =  0.700 |ddv_scf|^2 =  1.496E-07

      iter #   3 total cpu time :  5324.8 secs   av.it.:  18.2
      thresh= 3.868E-05 alpha_mix =  0.700 |ddv_scf|^2 =  1.091E-08

      iter #   4 total cpu time :  5406.9 secs   av.it.:  17.7
      thresh= 1.045E-05 alpha_mix =  0.700 |ddv_scf|^2 =  1.097E-10

      iter #   5 total cpu time :  5492.0 secs   av.it.:  18.3
      thresh= 1.047E-06 alpha_mix =  0.700 |ddv_scf|^2 =  1.274E-11

      iter #   6 total cpu time :  5578.8 secs   av.it.:  18.8
      thresh= 3.570E-07 alpha_mix =  0.700 |ddv_scf|^2 =  3.703E-12

      iter #   7 total cpu time :  5664.3 secs   av.it.:  18.6
      thresh= 1.924E-07 alpha_mix =  0.700 |ddv_scf|^2 =  5.710E-13

     End of self-consistent calculation

     Convergence has been achieved 


     Representation #   8 mode #   8

     Self-consistent Calculation

      iter #   1 total cpu time :  5713.4 secs   av.it.:   8.8
      thresh= 1.000E-02 alpha_mix =  0.700 |ddv_scf|^2 =  1.728E-07

      iter #   2 total cpu time :  5800.4 secs   av.it.:  18.8
      thresh= 4.157E-05 alpha_mix =  0.700 |ddv_scf|^2 =  1.544E-07

      iter #   3 total cpu time :  5884.8 secs   av.it.:  18.2
      thresh= 3.930E-05 alpha_mix =  0.700 |ddv_scf|^2 =  1.090E-08

      iter #   4 total cpu time :  5967.0 secs   av.it.:  17.7
      thresh= 1.044E-05 alpha_mix =  0.700 |ddv_scf|^2 =  1.140E-10

      iter #   5 total cpu time :  6052.2 secs   av.it.:  18.3
      thresh= 1.068E-06 alpha_mix =  0.700 |ddv_scf|^2 =  1.306E-11

      iter #   6 total cpu time :  6138.8 secs   av.it.:  18.8
      thresh= 3.614E-07 alpha_mix =  0.700 |ddv_scf|^2 =  3.746E-12

      iter #   7 total cpu time :  6224.2 secs   av.it.:  18.5
      thresh= 1.935E-07 alpha_mix =  0.700 |ddv_scf|^2 =  5.849E-13

     End of self-consistent calculation

     Convergence has been achieved 


     Representation #   9 mode #   9

     Self-consistent Calculation

      iter #   1 total cpu time :  6273.8 secs   av.it.:   8.8
      thresh= 1.000E-02 alpha_mix =  0.700 |ddv_scf|^2 =  5.767E-07

      iter #   2 total cpu time :  6356.7 secs   av.it.:  17.7
      thresh= 7.594E-05 alpha_mix =  0.700 |ddv_scf|^2 =  9.253E-07

      iter #   3 total cpu time :  6433.9 secs   av.it.:  16.2
      thresh= 9.619E-05 alpha_mix =  0.700 |ddv_scf|^2 =  1.389E-08

      iter #   4 total cpu time :  6514.3 secs   av.it.:  17.2
      thresh= 1.179E-05 alpha_mix =  0.700 |ddv_scf|^2 =  5.820E-10

      iter #   5 total cpu time :  6597.9 secs   av.it.:  18.0
      thresh= 2.413E-06 alpha_mix =  0.700 |ddv_scf|^2 =  1.819E-10

      iter #   6 total cpu time :  6679.0 secs   av.it.:  17.3
      thresh= 1.349E-06 alpha_mix =  0.700 |ddv_scf|^2 =  8.541E-12

      iter #   7 total cpu time :  6761.7 secs   av.it.:  18.1
      thresh= 2.923E-07 alpha_mix =  0.700 |ddv_scf|^2 =  7.297E-13

     End of self-consistent calculation

     Convergence has been achieved 


     Representation #  10 mode #  10

     Self-consistent Calculation

      iter #   1 total cpu time :  6810.1 secs   av.it.:   8.7
      thresh= 1.000E-02 alpha_mix =  0.700 |ddv_scf|^2 =  1.690E-07

      iter #   2 total cpu time :  6895.9 secs   av.it.:  18.8
      thresh= 4.112E-05 alpha_mix =  0.700 |ddv_scf|^2 =  1.496E-07

      iter #   3 total cpu time :  6978.7 secs   av.it.:  18.2
      thresh= 3.868E-05 alpha_mix =  0.700 |ddv_scf|^2 =  1.091E-08

      iter #   4 total cpu time :  7060.3 secs   av.it.:  17.7
      thresh= 1.045E-05 alpha_mix =  0.700 |ddv_scf|^2 =  1.097E-10

      iter #   5 total cpu time :  7143.5 secs   av.it.:  18.3
      thresh= 1.047E-06 alpha_mix =  0.700 |ddv_scf|^2 =  1.274E-11

      iter #   6 total cpu time :  7228.8 secs   av.it.:  18.8
      thresh= 3.570E-07 alpha_mix =  0.700 |ddv_scf|^2 =  3.703E-12

      iter #   7 total cpu time :  7313.2 secs   av.it.:  18.5
      thresh= 1.924E-07 alpha_mix =  0.700 |ddv_scf|^2 =  5.710E-13

     End of self-consistent calculation

     Convergence has been achieved 


     Representation #  11 mode #  11

     Self-consistent Calculation

      iter #   1 total cpu time :  7361.5 secs   av.it.:   8.8
      thresh= 1.000E-02 alpha_mix =  0.700 |ddv_scf|^2 =  1.728E-07

      iter #   2 total cpu time :  7447.0 secs   av.it.:  18.8
      thresh= 4.157E-05 alpha_mix =  0.700 |ddv_scf|^2 =  1.544E-07

      iter #   3 total cpu time :  7529.6 secs   av.it.:  18.2
      thresh= 3.930E-05 alpha_mix =  0.700 |ddv_scf|^2 =  1.090E-08

      iter #   4 total cpu time :  7610.5 secs   av.it.:  17.7
      thresh= 1.044E-05 alpha_mix =  0.700 |ddv_scf|^2 =  1.140E-10

      iter #   5 total cpu time :  7694.0 secs   av.it.:  18.3
      thresh= 1.068E-06 alpha_mix =  0.700 |ddv_scf|^2 =  1.306E-11

      iter #   6 total cpu time :  7779.2 secs   av.it.:  18.8
      thresh= 3.614E-07 alpha_mix =  0.700 |ddv_scf|^2 =  3.746E-12

      iter #   7 total cpu time :  7863.3 secs   av.it.:  18.5
      thresh= 1.935E-07 alpha_mix =  0.700 |ddv_scf|^2 =  5.849E-13

     End of self-consistent calculation

     Convergence has been achieved 


     Representation #  12 mode #  12

     Self-consistent Calculation

      iter #   1 total cpu time :  7911.5 secs   av.it.:   8.8
      thresh= 1.000E-02 alpha_mix =  0.700 |ddv_scf|^2 =  5.767E-07

      iter #   2 total cpu time :  7992.6 secs   av.it.:  17.7
      thresh= 7.594E-05 alpha_mix =  0.700 |ddv_scf|^2 =  9.253E-07

      iter #   3 total cpu time :  8068.3 secs   av.it.:  16.2
      thresh= 9.619E-05 alpha_mix =  0.700 |ddv_scf|^2 =  1.389E-08

      iter #   4 total cpu time :  8146.7 secs   av.it.:  17.2
      thresh= 1.179E-05 alpha_mix =  0.700 |ddv_scf|^2 =  5.820E-10

      iter #   5 total cpu time :  8228.8 secs   av.it.:  18.0
      thresh= 2.413E-06 alpha_mix =  0.700 |ddv_scf|^2 =  1.819E-10

      iter #   6 total cpu time :  8308.8 secs   av.it.:  17.3
      thresh= 1.349E-06 alpha_mix =  0.700 |ddv_scf|^2 =  8.541E-12

      iter #   7 total cpu time :  8391.1 secs   av.it.:  18.1
      thresh= 2.923E-07 alpha_mix =  0.700 |ddv_scf|^2 =  7.297E-13

     End of self-consistent calculation

     Convergence has been achieved 


     Representation #  13 mode #  13

     Self-consistent Calculation

      iter #   1 total cpu time :  8440.8 secs   av.it.:   8.9
      thresh= 1.000E-02 alpha_mix =  0.700 |ddv_scf|^2 =  6.820E-07

      iter #   2 total cpu time :  8524.0 secs   av.it.:  18.2
      thresh= 8.258E-05 alpha_mix =  0.700 |ddv_scf|^2 =  3.140E-07

      iter #   3 total cpu time :  8604.8 secs   av.it.:  17.7
      thresh= 5.604E-05 alpha_mix =  0.700 |ddv_scf|^2 =  1.431E-08

      iter #   4 total cpu time :  8688.6 secs   av.it.:  18.4
      thresh= 1.196E-05 alpha_mix =  0.700 |ddv_scf|^2 =  1.580E-09

      iter #   5 total cpu time :  8771.6 secs   av.it.:  18.0
      thresh= 3.974E-06 alpha_mix =  0.700 |ddv_scf|^2 =  1.415E-10

      iter #   6 total cpu time :  8854.5 secs   av.it.:  18.0
      thresh= 1.189E-06 alpha_mix =  0.700 |ddv_scf|^2 =  7.760E-12

      iter #   7 total cpu time :  8937.9 secs   av.it.:  18.3
      thresh= 2.786E-07 alpha_mix =  0.700 |ddv_scf|^2 =  3.918E-13

     End of self-consistent calculation

     Convergence has been achieved 


     Representation #  14 mode #  14

     Self-consistent Calculation

      iter #   1 total cpu time :  8986.8 secs   av.it.:   8.9
      thresh= 1.000E-02 alpha_mix =  0.700 |ddv_scf|^2 =  4.552E-07

      iter #   2 total cpu time :  9068.4 secs   av.it.:  18.1
      thresh= 6.747E-05 alpha_mix =  0.700 |ddv_scf|^2 =  6.425E-08

      iter #   3 total cpu time :  9150.9 secs   av.it.:  18.1
      thresh= 2.535E-05 alpha_mix =  0.700 |ddv_scf|^2 =  7.394E-09

      iter #   4 total cpu time :  9234.8 secs   av.it.:  18.4
      thresh= 8.599E-06 alpha_mix =  0.700 |ddv_scf|^2 =  8.372E-10

      iter #   5 total cpu time :  9317.0 secs   av.it.:  18.1
      thresh= 2.893E-06 alpha_mix =  0.700 |ddv_scf|^2 =  2.148E-11

      iter #   6 total cpu time :  9401.3 secs   av.it.:  18.6
      thresh= 4.635E-07 alpha_mix =  0.700 |ddv_scf|^2 =  3.641E-12

      iter #   7 total cpu time :  9484.5 secs   av.it.:  18.4
      thresh= 1.908E-07 alpha_mix =  0.700 |ddv_scf|^2 =  2.391E-13

     End of self-consistent calculation

     Convergence has been achieved 


     Representation #  15 mode #  15

     Self-consistent Calculation

      iter #   1 total cpu time :  9532.6 secs   av.it.:   8.9
      thresh= 1.000E-02 alpha_mix =  0.700 |ddv_scf|^2 =  1.076E-06

      iter #   2 total cpu time :  9611.7 secs   av.it.:  17.4
      thresh= 1.037E-04 alpha_mix =  0.700 |ddv_scf|^2 =  8.336E-07

      iter #   3 total cpu time :  9686.2 secs   av.it.:  16.2
      thresh= 9.130E-05 alpha_mix =  0.700 |ddv_scf|^2 =  5.217E-08

      iter #   4 total cpu time :  9764.1 secs   av.it.:  17.2
      thresh= 2.284E-05 alpha_mix =  0.700 |ddv_scf|^2 =  4.187E-09

      iter #   5 total cpu time :  9841.2 secs   av.it.:  17.1
      thresh= 6.471E-06 alpha_mix =  0.700 |ddv_scf|^2 =  1.052E-11

      iter #   6 total cpu time :  9923.8 secs   av.it.:  18.4
      thresh= 3.243E-07 alpha_mix =  0.700 |ddv_scf|^2 =  3.911E-12

      iter #   7 total cpu time : 10005.2 secs   av.it.:  18.1
      thresh= 1.978E-07 alpha_mix =  0.700 |ddv_scf|^2 =  1.194E-12

      iter #   8 total cpu time : 10085.0 secs   av.it.:  17.8
      thresh= 1.093E-07 alpha_mix =  0.700 |ddv_scf|^2 =  1.928E-14

     End of self-consistent calculation

     Convergence has been achieved 


     Representation #  16 mode #  16

     Self-consistent Calculation

      iter #   1 total cpu time : 10133.7 secs   av.it.:   8.9
      thresh= 1.000E-02 alpha_mix =  0.700 |ddv_scf|^2 =  6.820E-07

      iter #   2 total cpu time : 10216.1 secs   av.it.:  18.2
      thresh= 8.258E-05 alpha_mix =  0.700 |ddv_scf|^2 =  3.140E-07

      iter #   3 total cpu time : 10295.6 secs   av.it.:  17.7
      thresh= 5.604E-05 alpha_mix =  0.700 |ddv_scf|^2 =  1.431E-08

      iter #   4 total cpu time : 10378.1 secs   av.it.:  18.4
      thresh= 1.196E-05 alpha_mix =  0.700 |ddv_scf|^2 =  1.580E-09

      iter #   5 total cpu time : 10459.5 secs   av.it.:  18.0
      thresh= 3.974E-06 alpha_mix =  0.700 |ddv_scf|^2 =  1.415E-10

      iter #   6 total cpu time : 10539.8 secs   av.it.:  18.0
      thresh= 1.189E-06 alpha_mix =  0.700 |ddv_scf|^2 =  7.760E-12

      iter #   7 total cpu time : 10621.9 secs   av.it.:  18.3
      thresh= 2.786E-07 alpha_mix =  0.700 |ddv_scf|^2 =  3.918E-13

     End of self-consistent calculation

     Convergence has been achieved 


     Representation #  17 mode #  17

     Self-consistent Calculation

      iter #   1 total cpu time : 10670.3 secs   av.it.:   8.9
      thresh= 1.000E-02 alpha_mix =  0.700 |ddv_scf|^2 =  4.552E-07

      iter #   2 total cpu time : 10751.3 secs   av.it.:  18.1
      thresh= 6.747E-05 alpha_mix =  0.700 |ddv_scf|^2 =  6.425E-08

      iter #   3 total cpu time : 10832.6 secs   av.it.:  18.1
      thresh= 2.535E-05 alpha_mix =  0.700 |ddv_scf|^2 =  7.394E-09

      iter #   4 total cpu time : 10915.2 secs   av.it.:  18.4
      thresh= 8.599E-06 alpha_mix =  0.700 |ddv_scf|^2 =  8.372E-10

      iter #   5 total cpu time : 10996.4 secs   av.it.:  18.1
      thresh= 2.893E-06 alpha_mix =  0.700 |ddv_scf|^2 =  2.148E-11

      iter #   6 total cpu time : 11079.2 secs   av.it.:  18.5
      thresh= 4.635E-07 alpha_mix =  0.700 |ddv_scf|^2 =  3.641E-12

      iter #   7 total cpu time : 11161.9 secs   av.it.:  18.4
      thresh= 1.908E-07 alpha_mix =  0.700 |ddv_scf|^2 =  2.391E-13

     End of self-consistent calculation

     Convergence has been achieved 


     Representation #  18 mode #  18

     Self-consistent Calculation

      iter #   1 total cpu time : 11209.7 secs   av.it.:   8.9
      thresh= 1.000E-02 alpha_mix =  0.700 |ddv_scf|^2 =  1.076E-06

      iter #   2 total cpu time : 11288.3 secs   av.it.:  17.4
      thresh= 1.037E-04 alpha_mix =  0.700 |ddv_scf|^2 =  8.336E-07

      iter #   3 total cpu time : 11362.2 secs   av.it.:  16.2
      thresh= 9.130E-05 alpha_mix =  0.700 |ddv_scf|^2 =  5.217E-08

      iter #   4 total cpu time : 11440.0 secs   av.it.:  17.2
      thresh= 2.284E-05 alpha_mix =  0.700 |ddv_scf|^2 =  4.187E-09

      iter #   5 total cpu time : 11517.0 secs   av.it.:  17.1
      thresh= 6.471E-06 alpha_mix =  0.700 |ddv_scf|^2 =  1.052E-11

      iter #   6 total cpu time : 11599.7 secs   av.it.:  18.4
      thresh= 3.243E-07 alpha_mix =  0.700 |ddv_scf|^2 =  3.911E-12

      iter #   7 total cpu time : 11681.0 secs   av.it.:  18.1
      thresh= 1.978E-07 alpha_mix =  0.700 |ddv_scf|^2 =  1.194E-12

      iter #   8 total cpu time : 11760.4 secs   av.it.:  17.8
      thresh= 1.093E-07 alpha_mix =  0.700 |ddv_scf|^2 =  1.928E-14

     End of self-consistent calculation

     Convergence has been achieved 


     Representation #  19 mode #  19

     Self-consistent Calculation

      iter #   1 total cpu time : 11808.8 secs   av.it.:   8.9
      thresh= 1.000E-02 alpha_mix =  0.700 |ddv_scf|^2 =  4.653E-07

      iter #   2 total cpu time : 11889.5 secs   av.it.:  18.1
      thresh= 6.821E-05 alpha_mix =  0.700 |ddv_scf|^2 =  7.921E-08

      iter #   3 total cpu time : 11970.9 secs   av.it.:  18.2
      thresh= 2.814E-05 alpha_mix =  0.700 |ddv_scf|^2 =  9.421E-09

      iter #   4 total cpu time : 12053.1 secs   av.it.:  18.3
      thresh= 9.706E-06 alpha_mix =  0.700 |ddv_scf|^2 =  8.502E-10

      iter #   5 total cpu time : 12134.5 secs   av.it.:  18.1
      thresh= 2.916E-06 alpha_mix =  0.700 |ddv_scf|^2 =  3.285E-11

      iter #   6 total cpu time : 12217.4 secs   av.it.:  18.5
      thresh= 5.732E-07 alpha_mix =  0.700 |ddv_scf|^2 =  3.753E-12

      iter #   7 total cpu time : 12300.0 secs   av.it.:  18.6
      thresh= 1.937E-07 alpha_mix =  0.700 |ddv_scf|^2 =  2.946E-13

     End of self-consistent calculation

     Convergence has been achieved 


     Representation #  20 mode #  20

     Self-consistent Calculation

      iter #   1 total cpu time : 12348.5 secs   av.it.:   8.9
      thresh= 1.000E-02 alpha_mix =  0.700 |ddv_scf|^2 =  6.720E-07

      iter #   2 total cpu time : 12430.7 secs   av.it.:  18.2
      thresh= 8.197E-05 alpha_mix =  0.700 |ddv_scf|^2 =  2.990E-07

      iter #   3 total cpu time : 12510.6 secs   av.it.:  17.7
      thresh= 5.468E-05 alpha_mix =  0.700 |ddv_scf|^2 =  1.447E-08

      iter #   4 total cpu time : 12593.1 secs   av.it.:  18.4
      thresh= 1.203E-05 alpha_mix =  0.700 |ddv_scf|^2 =  1.550E-09

      iter #   5 total cpu time : 12674.3 secs   av.it.:  18.1
      thresh= 3.937E-06 alpha_mix =  0.700 |ddv_scf|^2 =  1.417E-10

      iter #   6 total cpu time : 12755.4 secs   av.it.:  17.9
      thresh= 1.191E-06 alpha_mix =  0.700 |ddv_scf|^2 =  7.713E-12

      iter #   7 total cpu time : 12837.3 secs   av.it.:  18.3
      thresh= 2.777E-07 alpha_mix =  0.700 |ddv_scf|^2 =  4.052E-13

     End of self-consistent calculation

     Convergence has been achieved 


     Representation #  21 mode #  21

     Self-consistent Calculation

      iter #   1 total cpu time : 12885.0 secs   av.it.:   8.9
      thresh= 1.000E-02 alpha_mix =  0.700 |ddv_scf|^2 =  1.076E-06

      iter #   2 total cpu time : 12963.5 secs   av.it.:  17.4
      thresh= 1.037E-04 alpha_mix =  0.700 |ddv_scf|^2 =  8.337E-07

      iter #   3 total cpu time : 13037.7 secs   av.it.:  16.2
      thresh= 9.131E-05 alpha_mix =  0.700 |ddv_scf|^2 =  5.216E-08

      iter #   4 total cpu time : 13115.3 secs   av.it.:  17.2
      thresh= 2.284E-05 alpha_mix =  0.700 |ddv_scf|^2 =  4.188E-09

      iter #   5 total cpu time : 13192.1 secs   av.it.:  17.1
      thresh= 6.471E-06 alpha_mix =  0.700 |ddv_scf|^2 =  1.052E-11

      iter #   6 total cpu time : 13280.3 secs   av.it.:  18.4
      thresh= 3.244E-07 alpha_mix =  0.700 |ddv_scf|^2 =  3.910E-12

      iter #   7 total cpu time : 13372.3 secs   av.it.:  18.1
      thresh= 1.977E-07 alpha_mix =  0.700 |ddv_scf|^2 =  1.194E-12

      iter #   8 total cpu time : 13461.5 secs   av.it.:  17.8
      thresh= 1.093E-07 alpha_mix =  0.700 |ddv_scf|^2 =  1.929E-14

     End of self-consistent calculation

     Convergence has been achieved 


     Representation #  22 mode #  22

     Self-consistent Calculation

      iter #   1 total cpu time : 13516.8 secs   av.it.:   8.9
      thresh= 1.000E-02 alpha_mix =  0.700 |ddv_scf|^2 =  4.653E-07

      iter #   2 total cpu time : 13607.3 secs   av.it.:  18.1
      thresh= 6.821E-05 alpha_mix =  0.700 |ddv_scf|^2 =  7.921E-08

      iter #   3 total cpu time : 13699.1 secs   av.it.:  18.2
      thresh= 2.814E-05 alpha_mix =  0.700 |ddv_scf|^2 =  9.421E-09

      iter #   4 total cpu time : 13791.4 secs   av.it.:  18.3
      thresh= 9.706E-06 alpha_mix =  0.700 |ddv_scf|^2 =  8.502E-10

      iter #   5 total cpu time : 13883.5 secs   av.it.:  18.1
      thresh= 2.916E-06 alpha_mix =  0.700 |ddv_scf|^2 =  3.285E-11

      iter #   6 total cpu time : 13977.1 secs   av.it.:  18.5
      thresh= 5.732E-07 alpha_mix =  0.700 |ddv_scf|^2 =  3.753E-12

      iter #   7 total cpu time : 14063.4 secs   av.it.:  18.6
      thresh= 1.937E-07 alpha_mix =  0.700 |ddv_scf|^2 =  2.946E-13

     End of self-consistent calculation

     Convergence has been achieved 


     Representation #  23 mode #  23

     Self-consistent Calculation

      iter #   1 total cpu time : 14112.6 secs   av.it.:   8.9
      thresh= 1.000E-02 alpha_mix =  0.700 |ddv_scf|^2 =  6.720E-07

      iter #   2 total cpu time : 14195.8 secs   av.it.:  18.2
      thresh= 8.197E-05 alpha_mix =  0.700 |ddv_scf|^2 =  2.990E-07

      iter #   3 total cpu time : 14276.5 secs   av.it.:  17.7
      thresh= 5.468E-05 alpha_mix =  0.700 |ddv_scf|^2 =  1.447E-08

      iter #   4 total cpu time : 14360.1 secs   av.it.:  18.4
      thresh= 1.203E-05 alpha_mix =  0.700 |ddv_scf|^2 =  1.550E-09

      iter #   5 total cpu time : 14442.7 secs   av.it.:  18.1
      thresh= 3.937E-06 alpha_mix =  0.700 |ddv_scf|^2 =  1.417E-10

      iter #   6 total cpu time : 14524.9 secs   av.it.:  17.9
      thresh= 1.191E-06 alpha_mix =  0.700 |ddv_scf|^2 =  7.713E-12

      iter #   7 total cpu time : 14607.8 secs   av.it.:  18.3
      thresh= 2.777E-07 alpha_mix =  0.700 |ddv_scf|^2 =  4.052E-13

     End of self-consistent calculation

     Convergence has been achieved 


     Representation #  24 mode #  24

     Self-consistent Calculation

      iter #   1 total cpu time : 14656.2 secs   av.it.:   8.9
      thresh= 1.000E-02 alpha_mix =  0.700 |ddv_scf|^2 =  1.076E-06

      iter #   2 total cpu time : 14735.6 secs   av.it.:  17.4
      thresh= 1.037E-04 alpha_mix =  0.700 |ddv_scf|^2 =  8.337E-07

      iter #   3 total cpu time : 14810.7 secs   av.it.:  16.2
      thresh= 9.131E-05 alpha_mix =  0.700 |ddv_scf|^2 =  5.216E-08

      iter #   4 total cpu time : 14889.7 secs   av.it.:  17.2
      thresh= 2.284E-05 alpha_mix =  0.700 |ddv_scf|^2 =  4.188E-09

      iter #   5 total cpu time : 14967.7 secs   av.it.:  17.1
      thresh= 6.471E-06 alpha_mix =  0.700 |ddv_scf|^2 =  1.052E-11

      iter #   6 total cpu time : 15051.4 secs   av.it.:  18.4
      thresh= 3.244E-07 alpha_mix =  0.700 |ddv_scf|^2 =  3.910E-12

      iter #   7 total cpu time : 15133.8 secs   av.it.:  18.1
      thresh= 1.977E-07 alpha_mix =  0.700 |ddv_scf|^2 =  1.194E-12

      iter #   8 total cpu time : 15214.5 secs   av.it.:  17.7
      thresh= 1.093E-07 alpha_mix =  0.700 |ddv_scf|^2 =  1.929E-14

     End of self-consistent calculation

     Convergence has been achieved 


     Representation #  25 mode #  25

     Self-consistent Calculation

      iter #   1 total cpu time : 15263.5 secs   av.it.:   8.9
      thresh= 1.000E-02 alpha_mix =  0.700 |ddv_scf|^2 =  4.703E-07

      iter #   2 total cpu time : 15347.7 secs   av.it.:  18.5
      thresh= 6.858E-05 alpha_mix =  0.700 |ddv_scf|^2 =  1.101E-07

      iter #   3 total cpu time : 15430.8 secs   av.it.:  18.2
      thresh= 3.319E-05 alpha_mix =  0.700 |ddv_scf|^2 =  1.677E-08

      iter #   4 total cpu time : 15513.4 secs   av.it.:  18.1
      thresh= 1.295E-05 alpha_mix =  0.700 |ddv_scf|^2 =  1.579E-09

      iter #   5 total cpu time : 15594.8 secs   av.it.:  17.8
      thresh= 3.973E-06 alpha_mix =  0.700 |ddv_scf|^2 =  8.998E-11

      iter #   6 total cpu time : 15677.4 secs   av.it.:  18.0
      thresh= 9.486E-07 alpha_mix =  0.700 |ddv_scf|^2 =  9.435E-12

      iter #   7 total cpu time : 15761.5 secs   av.it.:  18.6
      thresh= 3.072E-07 alpha_mix =  0.700 |ddv_scf|^2 =  1.448E-12

      iter #   8 total cpu time : 15846.0 secs   av.it.:  18.7
      thresh= 1.203E-07 alpha_mix =  0.700 |ddv_scf|^2 =  2.887E-13

     End of self-consistent calculation

     Convergence has been achieved 


     Representation #  26 mode #  26

     Self-consistent Calculation

      iter #   1 total cpu time : 15895.1 secs   av.it.:   8.9
      thresh= 1.000E-02 alpha_mix =  0.700 |ddv_scf|^2 =  4.908E-07

      iter #   2 total cpu time : 15979.4 secs   av.it.:  18.5
      thresh= 7.006E-05 alpha_mix =  0.700 |ddv_scf|^2 =  1.307E-07

      iter #   3 total cpu time : 16062.4 secs   av.it.:  18.1
      thresh= 3.615E-05 alpha_mix =  0.700 |ddv_scf|^2 =  1.792E-08

      iter #   4 total cpu time : 16145.4 secs   av.it.:  18.2
      thresh= 1.339E-05 alpha_mix =  0.700 |ddv_scf|^2 =  1.773E-09

      iter #   5 total cpu time : 16226.6 secs   av.it.:  17.8
      thresh= 4.210E-06 alpha_mix =  0.700 |ddv_scf|^2 =  9.256E-11

      iter #   6 total cpu time : 16309.5 secs   av.it.:  18.1
      thresh= 9.621E-07 alpha_mix =  0.700 |ddv_scf|^2 =  1.037E-11

      iter #   7 total cpu time : 16393.2 secs   av.it.:  18.5
      thresh= 3.221E-07 alpha_mix =  0.700 |ddv_scf|^2 =  1.401E-12

      iter #   8 total cpu time : 16477.9 secs   av.it.:  18.7
      thresh= 1.184E-07 alpha_mix =  0.700 |ddv_scf|^2 =  2.952E-13

     End of self-consistent calculation

     Convergence has been achieved 


     Representation #  27 mode #  27

     Self-consistent Calculation

      iter #   1 total cpu time : 16528.4 secs   av.it.:   9.3
      thresh= 1.000E-02 alpha_mix =  0.700 |ddv_scf|^2 =  1.258E-06

      iter #   2 total cpu time : 16611.1 secs   av.it.:  18.2
      thresh= 1.122E-04 alpha_mix =  0.700 |ddv_scf|^2 =  7.825E-07

      iter #   3 total cpu time : 16690.2 secs   av.it.:  17.4
      thresh= 8.846E-05 alpha_mix =  0.700 |ddv_scf|^2 =  6.201E-08

      iter #   4 total cpu time : 16769.0 secs   av.it.:  17.3
      thresh= 2.490E-05 alpha_mix =  0.700 |ddv_scf|^2 =  1.847E-09

      iter #   5 total cpu time : 16850.4 secs   av.it.:  17.8
      thresh= 4.297E-06 alpha_mix =  0.700 |ddv_scf|^2 =  2.099E-10

      iter #   6 total cpu time : 16934.1 secs   av.it.:  18.4
      thresh= 1.449E-06 alpha_mix =  0.700 |ddv_scf|^2 =  1.751E-11

      iter #   7 total cpu time : 17016.5 secs   av.it.:  18.2
      thresh= 4.184E-07 alpha_mix =  0.700 |ddv_scf|^2 =  1.416E-12

      iter #   8 total cpu time : 17102.9 secs   av.it.:  19.2
      thresh= 1.190E-07 alpha_mix =  0.700 |ddv_scf|^2 =  6.497E-13

     End of self-consistent calculation

     Convergence has been achieved 


     Representation #  28 mode #  28

     Self-consistent Calculation

      iter #   1 total cpu time : 17151.9 secs   av.it.:   8.9
      thresh= 1.000E-02 alpha_mix =  0.700 |ddv_scf|^2 =  4.703E-07

      iter #   2 total cpu time : 17236.0 secs   av.it.:  18.5
      thresh= 6.858E-05 alpha_mix =  0.700 |ddv_scf|^2 =  1.101E-07

      iter #   3 total cpu time : 17319.0 secs   av.it.:  18.2
      thresh= 3.319E-05 alpha_mix =  0.700 |ddv_scf|^2 =  1.677E-08

      iter #   4 total cpu time : 17401.7 secs   av.it.:  18.1
      thresh= 1.295E-05 alpha_mix =  0.700 |ddv_scf|^2 =  1.579E-09

      iter #   5 total cpu time : 17483.0 secs   av.it.:  17.8
      thresh= 3.973E-06 alpha_mix =  0.700 |ddv_scf|^2 =  8.998E-11

      iter #   6 total cpu time : 17565.7 secs   av.it.:  18.0
      thresh= 9.486E-07 alpha_mix =  0.700 |ddv_scf|^2 =  9.435E-12

      iter #   7 total cpu time : 17649.7 secs   av.it.:  18.6
      thresh= 3.072E-07 alpha_mix =  0.700 |ddv_scf|^2 =  1.448E-12

      iter #   8 total cpu time : 17734.1 secs   av.it.:  18.7
      thresh= 1.203E-07 alpha_mix =  0.700 |ddv_scf|^2 =  2.887E-13

     End of self-consistent calculation

     Convergence has been achieved 


     Representation #  29 mode #  29

     Self-consistent Calculation

      iter #   1 total cpu time : 17783.1 secs   av.it.:   8.9
      thresh= 1.000E-02 alpha_mix =  0.700 |ddv_scf|^2 =  4.908E-07

      iter #   2 total cpu time : 17867.4 secs   av.it.:  18.5
      thresh= 7.006E-05 alpha_mix =  0.700 |ddv_scf|^2 =  1.307E-07

      iter #   3 total cpu time : 17950.3 secs   av.it.:  18.1
      thresh= 3.615E-05 alpha_mix =  0.700 |ddv_scf|^2 =  1.792E-08

      iter #   4 total cpu time : 18033.0 secs   av.it.:  18.2
      thresh= 1.339E-05 alpha_mix =  0.700 |ddv_scf|^2 =  1.773E-09

      iter #   5 total cpu time : 18114.3 secs   av.it.:  17.8
      thresh= 4.210E-06 alpha_mix =  0.700 |ddv_scf|^2 =  9.256E-11

      iter #   6 total cpu time : 18197.2 secs   av.it.:  18.1
      thresh= 9.621E-07 alpha_mix =  0.700 |ddv_scf|^2 =  1.037E-11

      iter #   7 total cpu time : 18280.7 secs   av.it.:  18.5
      thresh= 3.221E-07 alpha_mix =  0.700 |ddv_scf|^2 =  1.401E-12

      iter #   8 total cpu time : 18365.6 secs   av.it.:  18.7
      thresh= 1.184E-07 alpha_mix =  0.700 |ddv_scf|^2 =  2.952E-13

     End of self-consistent calculation

     Convergence has been achieved 


     Representation #  30 mode #  30

     Self-consistent Calculation

      iter #   1 total cpu time : 18416.2 secs   av.it.:   9.3
      thresh= 1.000E-02 alpha_mix =  0.700 |ddv_scf|^2 =  1.258E-06

      iter #   2 total cpu time : 18498.8 secs   av.it.:  18.2
      thresh= 1.122E-04 alpha_mix =  0.700 |ddv_scf|^2 =  7.825E-07

      iter #   3 total cpu time : 18577.8 secs   av.it.:  17.4
      thresh= 8.846E-05 alpha_mix =  0.700 |ddv_scf|^2 =  6.201E-08

      iter #   4 total cpu time : 18656.5 secs   av.it.:  17.3
      thresh= 2.490E-05 alpha_mix =  0.700 |ddv_scf|^2 =  1.847E-09

      iter #   5 total cpu time : 18737.7 secs   av.it.:  17.8
      thresh= 4.297E-06 alpha_mix =  0.700 |ddv_scf|^2 =  2.099E-10

      iter #   6 total cpu time : 18821.3 secs   av.it.:  18.4
      thresh= 1.449E-06 alpha_mix =  0.700 |ddv_scf|^2 =  1.751E-11

      iter #   7 total cpu time : 18903.7 secs   av.it.:  18.2
      thresh= 4.184E-07 alpha_mix =  0.700 |ddv_scf|^2 =  1.416E-12

      iter #   8 total cpu time : 18989.8 secs   av.it.:  19.2
      thresh= 1.190E-07 alpha_mix =  0.700 |ddv_scf|^2 =  6.497E-13

     End of self-consistent calculation

     Convergence has been achieved 


     Representation #  31 mode #  31

     Self-consistent Calculation

      iter #   1 total cpu time : 19038.9 secs   av.it.:   8.9
      thresh= 1.000E-02 alpha_mix =  0.700 |ddv_scf|^2 =  4.703E-07

      iter #   2 total cpu time : 19123.0 secs   av.it.:  18.4
      thresh= 6.858E-05 alpha_mix =  0.700 |ddv_scf|^2 =  1.101E-07

      iter #   3 total cpu time : 19206.0 secs   av.it.:  18.2
      thresh= 3.319E-05 alpha_mix =  0.700 |ddv_scf|^2 =  1.677E-08

      iter #   4 total cpu time : 19288.7 secs   av.it.:  18.1
      thresh= 1.295E-05 alpha_mix =  0.700 |ddv_scf|^2 =  1.579E-09

      iter #   5 total cpu time : 19370.3 secs   av.it.:  17.8
      thresh= 3.974E-06 alpha_mix =  0.700 |ddv_scf|^2 =  8.997E-11

      iter #   6 total cpu time : 19453.0 secs   av.it.:  18.0
      thresh= 9.485E-07 alpha_mix =  0.700 |ddv_scf|^2 =  9.437E-12

      iter #   7 total cpu time : 19498.5 secs   av.it.:  18.6
      thresh= 3.072E-07 alpha_mix =  0.700 |ddv_scf|^2 =  1.448E-12

      iter #   8 total cpu time : 19543.3 secs   av.it.:  18.7
      thresh= 1.203E-07 alpha_mix =  0.700 |ddv_scf|^2 =  2.887E-13

     End of self-consistent calculation

     Convergence has been achieved 


     Representation #  32 mode #  32

     Self-consistent Calculation

      iter #   1 total cpu time : 19569.6 secs   av.it.:   8.9
      thresh= 1.000E-02 alpha_mix =  0.700 |ddv_scf|^2 =  4.908E-07

      iter #   2 total cpu time : 19615.4 secs   av.it.:  18.5
      thresh= 7.006E-05 alpha_mix =  0.700 |ddv_scf|^2 =  1.307E-07

      iter #   3 total cpu time : 19660.0 secs   av.it.:  18.1
      thresh= 3.615E-05 alpha_mix =  0.700 |ddv_scf|^2 =  1.791E-08

      iter #   4 total cpu time : 19704.0 secs   av.it.:  18.2
      thresh= 1.338E-05 alpha_mix =  0.700 |ddv_scf|^2 =  1.773E-09

      iter #   5 total cpu time : 19747.4 secs   av.it.:  17.8
      thresh= 4.210E-06 alpha_mix =  0.700 |ddv_scf|^2 =  9.257E-11

      iter #   6 total cpu time : 19791.4 secs   av.it.:  18.2
      thresh= 9.621E-07 alpha_mix =  0.700 |ddv_scf|^2 =  1.037E-11

      iter #   7 total cpu time : 19835.8 secs   av.it.:  18.5
      thresh= 3.221E-07 alpha_mix =  0.700 |ddv_scf|^2 =  1.401E-12

      iter #   8 total cpu time : 19881.1 secs   av.it.:  18.7
      thresh= 1.184E-07 alpha_mix =  0.700 |ddv_scf|^2 =  2.953E-13

     End of self-consistent calculation

     Convergence has been achieved 


     Representation #  33 mode #  33

     Self-consistent Calculation

      iter #   1 total cpu time : 19908.2 secs   av.it.:   9.3
      thresh= 1.000E-02 alpha_mix =  0.700 |ddv_scf|^2 =  1.258E-06

      iter #   2 total cpu time : 19952.2 secs   av.it.:  18.2
      thresh= 1.122E-04 alpha_mix =  0.700 |ddv_scf|^2 =  7.825E-07

      iter #   3 total cpu time : 19994.2 secs   av.it.:  17.4
      thresh= 8.846E-05 alpha_mix =  0.700 |ddv_scf|^2 =  6.202E-08

      iter #   4 total cpu time : 20036.1 secs   av.it.:  17.4
      thresh= 2.490E-05 alpha_mix =  0.700 |ddv_scf|^2 =  1.846E-09

      iter #   5 total cpu time : 20079.2 secs   av.it.:  17.8
      thresh= 4.297E-06 alpha_mix =  0.700 |ddv_scf|^2 =  2.099E-10

      iter #   6 total cpu time : 20123.5 secs   av.it.:  18.4
      thresh= 1.449E-06 alpha_mix =  0.700 |ddv_scf|^2 =  1.750E-11

      iter #   7 total cpu time : 20167.3 secs   av.it.:  18.2
      thresh= 4.184E-07 alpha_mix =  0.700 |ddv_scf|^2 =  1.415E-12

      iter #   8 total cpu time : 20213.3 secs   av.it.:  19.2
      thresh= 1.190E-07 alpha_mix =  0.700 |ddv_scf|^2 =  6.495E-13

     End of self-consistent calculation

     Convergence has been achieved 


     Representation #  34 mode #  34

     Self-consistent Calculation

      iter #   1 total cpu time : 20239.5 secs   av.it.:   8.9
      thresh= 1.000E-02 alpha_mix =  0.700 |ddv_scf|^2 =  4.703E-07

      iter #   2 total cpu time : 20284.1 secs   av.it.:  18.4
      thresh= 6.858E-05 alpha_mix =  0.700 |ddv_scf|^2 =  1.101E-07

      iter #   3 total cpu time : 20328.1 secs   av.it.:  18.2
      thresh= 3.319E-05 alpha_mix =  0.700 |ddv_scf|^2 =  1.677E-08

      iter #   4 total cpu time : 20372.0 secs   av.it.:  18.1
      thresh= 1.295E-05 alpha_mix =  0.700 |ddv_scf|^2 =  1.579E-09

      iter #   5 total cpu time : 20415.4 secs   av.it.:  17.8
      thresh= 3.974E-06 alpha_mix =  0.700 |ddv_scf|^2 =  8.997E-11

      iter #   6 total cpu time : 20459.7 secs   av.it.:  18.0
      thresh= 9.485E-07 alpha_mix =  0.700 |ddv_scf|^2 =  9.437E-12

      iter #   7 total cpu time : 20504.4 secs   av.it.:  18.6
      thresh= 3.072E-07 alpha_mix =  0.700 |ddv_scf|^2 =  1.448E-12

      iter #   8 total cpu time : 20549.2 secs   av.it.:  18.7
      thresh= 1.203E-07 alpha_mix =  0.700 |ddv_scf|^2 =  2.887E-13

     End of self-consistent calculation

     Convergence has been achieved 


     Representation #  35 mode #  35

     Self-consistent Calculation

      iter #   1 total cpu time : 20575.5 secs   av.it.:   8.9
      thresh= 1.000E-02 alpha_mix =  0.700 |ddv_scf|^2 =  4.908E-07

      iter #   2 total cpu time : 20620.7 secs   av.it.:  18.5
      thresh= 7.006E-05 alpha_mix =  0.700 |ddv_scf|^2 =  1.307E-07

      iter #   3 total cpu time : 20664.6 secs   av.it.:  18.1
      thresh= 3.615E-05 alpha_mix =  0.700 |ddv_scf|^2 =  1.791E-08

      iter #   4 total cpu time : 20708.5 secs   av.it.:  18.2
      thresh= 1.338E-05 alpha_mix =  0.700 |ddv_scf|^2 =  1.773E-09

      iter #   5 total cpu time : 20751.5 secs   av.it.:  17.8
      thresh= 4.210E-06 alpha_mix =  0.700 |ddv_scf|^2 =  9.257E-11

      iter #   6 total cpu time : 20795.3 secs   av.it.:  18.2
      thresh= 9.621E-07 alpha_mix =  0.700 |ddv_scf|^2 =  1.037E-11

      iter #   7 total cpu time : 20839.7 secs   av.it.:  18.5
      thresh= 3.221E-07 alpha_mix =  0.700 |ddv_scf|^2 =  1.401E-12

      iter #   8 total cpu time : 20884.6 secs   av.it.:  18.7
      thresh= 1.184E-07 alpha_mix =  0.700 |ddv_scf|^2 =  2.953E-13

     End of self-consistent calculation

     Convergence has been achieved 


     Representation #  36 mode #  36

     Self-consistent Calculation

      iter #   1 total cpu time : 20911.6 secs   av.it.:   9.3
      thresh= 1.000E-02 alpha_mix =  0.700 |ddv_scf|^2 =  1.258E-06

      iter #   2 total cpu time : 20955.4 secs   av.it.:  18.2
      thresh= 1.122E-04 alpha_mix =  0.700 |ddv_scf|^2 =  7.825E-07

      iter #   3 total cpu time : 20997.4 secs   av.it.:  17.4
      thresh= 8.846E-05 alpha_mix =  0.700 |ddv_scf|^2 =  6.202E-08

      iter #   4 total cpu time : 21039.1 secs   av.it.:  17.4
      thresh= 2.490E-05 alpha_mix =  0.700 |ddv_scf|^2 =  1.846E-09

      iter #   5 total cpu time : 21082.3 secs   av.it.:  17.8
      thresh= 4.297E-06 alpha_mix =  0.700 |ddv_scf|^2 =  2.099E-10

      iter #   6 total cpu time : 21126.7 secs   av.it.:  18.4
      thresh= 1.449E-06 alpha_mix =  0.700 |ddv_scf|^2 =  1.750E-11

      iter #   7 total cpu time : 21170.4 secs   av.it.:  18.2
      thresh= 4.184E-07 alpha_mix =  0.700 |ddv_scf|^2 =  1.415E-12

      iter #   8 total cpu time : 21216.2 secs   av.it.:  19.2
      thresh= 1.190E-07 alpha_mix =  0.700 |ddv_scf|^2 =  6.495E-13

     End of self-consistent calculation

     Convergence has been achieved 

     Number of q in the star =    1
     List of q in the star:
          1   0.000000000   0.000000000   0.000000000

          Dielectric constant in cartesian axis 

          (       2.702622082       0.104971113      -0.000001368 )
          (       0.104971115       2.725895254      -0.000000841 )
          (      -0.000001369      -0.000000842       2.640575673 )

          Effective charges (d Force / dE) in cartesian axis

           atom      1   Ca 
      Ex  (        1.28063       -1.89543        1.17010 )
      Ey  (     -318.40588     -520.92564      263.89633 )
      Ez  (     -298.03689     -485.31841      250.25547 )
           atom      2   Ca 
      Ex  (       -0.38682       -0.51852        2.65715 )
      Ey  (     -335.70531     -525.10369      268.96521 )
      Ez  (     -304.57087     -475.60727      247.40894 )
           atom      3   S  
      Ex  (        3.22538       -0.08359       -1.04724 )
      Ey  (        0.47689        3.97217       -1.23039 )
      Ez  (       -0.08884       -0.04106        3.37759 )
           atom      4   S  
      Ex  (        3.69080        0.24368       -0.11893 )
      Ey  (        0.19557        3.43628        0.65262 )
      Ez  (       -0.09545       -0.24022        3.81631 )
           atom      5   O  
      Ex  (      -15.83166      -17.27366       17.24807 )
      Ey  (      -95.10990     -117.95029      121.81853 )
      Ez  (      -79.67763      -97.16070      100.96670 )
           atom      6   O  
      Ex  (      -14.55030      -24.30111       24.34335 )
      Ey  (      -64.59640     -131.70967      132.73246 )
      Ez  (      -52.94166     -106.44754      107.82890 )
           atom      7   O  
      Ex  (      -43.84275      -40.33871       41.29152 )
      Ey  (     -128.00495     -111.47460      131.81453 )
      Ez  (      -97.63575      -56.28295       98.79892 )
           atom      8   O  
      Ex  (       -2.10310        0.73625        2.19037 )
      Ey  (     -139.28494      -76.37266      136.50472 )
      Ez  (      -69.94216      -37.19819       67.69363 )
           atom      9   O  
      Ex  (       -1.61264       -1.81848        0.05153 )
      Ey  (     -103.03731     -101.12344       81.30480 )
      Ez  (      -50.25665      -48.95746       38.95039 )
           atom     10   O  
      Ex  (      -41.64254      -78.46991       53.87440 )
      Ey  (     -131.97345     -136.06692      156.63301 )
      Ez  (      -12.09818      -12.07521       12.40801 )
           atom     11   O  
      Ex  (      -95.69076      -95.30830       82.95980 )
      Ey  (     -155.58546     -157.23112      135.54102 )
      Ez  (      -13.20769       -1.67385        9.28102 )
           atom     12   O  
      Ex  (      -69.17372      -64.45045       35.28352 )
      Ey  (     -106.99048     -101.70180       55.47469 )
      Ez  (        0.59197        0.70988       -2.95714 )

     Diagonalizing the dynamical matrix

     q = (    0.000000000   0.000000000   0.000000000 ) 

 **************************************************************************
     freq (    1) =      -1.193492 [THz] =     -39.810593 [cm-1]
     freq (    2) =      -0.599592 [THz] =     -20.000226 [cm-1]
     freq (    3) =       0.156489 [THz] =       5.219898 [cm-1]
     freq (    4) =       1.558032 [THz] =      51.970347 [cm-1]
     freq (    5) =       2.858440 [THz] =      95.347279 [cm-1]
     freq (    6) =       3.676146 [THz] =     122.623047 [cm-1]
     freq (    7) =       3.703443 [THz] =     123.533567 [cm-1]
     freq (    8) =       3.717039 [THz] =     123.987086 [cm-1]
     freq (    9) =       4.191927 [THz] =     139.827650 [cm-1]
     freq (   10) =       4.262399 [THz] =     142.178332 [cm-1]
     freq (   11) =       4.732567 [THz] =     157.861454 [cm-1]
     freq (   12) =       4.903488 [THz] =     163.562754 [cm-1]
     freq (   13) =       6.190538 [THz] =     206.494117 [cm-1]
     freq (   14) =       6.361033 [THz] =     212.181220 [cm-1]
     freq (   15) =       6.661358 [THz] =     222.198972 [cm-1]
     freq (   16) =       6.776773 [THz] =     226.048815 [cm-1]
     freq (   17) =       7.530952 [THz] =     251.205520 [cm-1]
     freq (   18) =       7.567145 [THz] =     252.412781 [cm-1]
     freq (   19) =      11.680673 [THz] =     389.625327 [cm-1]
     freq (   20) =      11.852334 [THz] =     395.351306 [cm-1]
     freq (   21) =      14.091107 [THz] =     470.028732 [cm-1]
     freq (   22) =      14.534714 [THz] =     484.825866 [cm-1]
     freq (   23) =      16.705053 [THz] =     557.220600 [cm-1]
     freq (   24) =      17.119986 [THz] =     571.061270 [cm-1]
     freq (   25) =      17.195077 [THz] =     573.566018 [cm-1]
     freq (   26) =      17.774407 [THz] =     592.890386 [cm-1]
     freq (   27) =      19.172272 [THz] =     639.518140 [cm-1]
     freq (   28) =      19.273836 [THz] =     642.905967 [cm-1]
     freq (   29) =      30.809140 [THz] =    1027.682287 [cm-1]
     freq (   30) =      31.069912 [THz] =    1036.380716 [cm-1]
     freq (   31) =      33.655607 [THz] =    1122.630219 [cm-1]
     freq (   32) =      34.116050 [THz] =    1137.988931 [cm-1]
     freq (   33) =      34.511040 [THz] =    1151.164386 [cm-1]
     freq (   34) =      34.688574 [THz] =    1157.086272 [cm-1]
     freq (   35) =      35.387253 [THz] =    1180.391698 [cm-1]
     freq (   36) =      35.396500 [THz] =    1180.700149 [cm-1]
 **************************************************************************

     Mode symmetry, C_1 (1)     point group:

     freq (   1-   1) =        -39.8  [cm-1]   --> A               I+R
     freq (   2-   2) =        -20.0  [cm-1]   --> A               I+R
     freq (   3-   3) =          5.2  [cm-1]   --> A               I+R
     freq (   4-   4) =         52.0  [cm-1]   --> A               I+R
     freq (   5-   5) =         95.3  [cm-1]   --> A               I+R
     freq (   6-   6) =        122.6  [cm-1]   --> A               I+R
     freq (   7-   7) =        123.5  [cm-1]   --> A               I+R
     freq (   8-   8) =        124.0  [cm-1]   --> A               I+R
     freq (   9-   9) =        139.8  [cm-1]   --> A               I+R
     freq (  10-  10) =        142.2  [cm-1]   --> A               I+R
     freq (  11-  11) =        157.9  [cm-1]   --> A               I+R
     freq (  12-  12) =        163.6  [cm-1]   --> A               I+R
     freq (  13-  13) =        206.5  [cm-1]   --> A               I+R
     freq (  14-  14) =        212.2  [cm-1]   --> A               I+R
     freq (  15-  15) =        222.2  [cm-1]   --> A               I+R
     freq (  16-  16) =        226.0  [cm-1]   --> A               I+R
     freq (  17-  17) =        251.2  [cm-1]   --> A               I+R
     freq (  18-  18) =        252.4  [cm-1]   --> A               I+R
     freq (  19-  19) =        389.6  [cm-1]   --> A               I+R
     freq (  20-  20) =        395.4  [cm-1]   --> A               I+R
     freq (  21-  21) =        470.0  [cm-1]   --> A               I+R
     freq (  22-  22) =        484.8  [cm-1]   --> A               I+R
     freq (  23-  23) =        557.2  [cm-1]   --> A               I+R
     freq (  24-  24) =        571.1  [cm-1]   --> A               I+R
     freq (  25-  25) =        573.6  [cm-1]   --> A               I+R
     freq (  26-  26) =        592.9  [cm-1]   --> A               I+R
     freq (  27-  27) =        639.5  [cm-1]   --> A               I+R
     freq (  28-  28) =        642.9  [cm-1]   --> A               I+R
     freq (  29-  29) =       1027.7  [cm-1]   --> A               I+R
     freq (  30-  30) =       1036.4  [cm-1]   --> A               I+R
     freq (  31-  31) =       1122.6  [cm-1]   --> A               I+R
     freq (  32-  32) =       1138.0  [cm-1]   --> A               I+R
     freq (  33-  33) =       1151.2  [cm-1]   --> A               I+R
     freq (  34-  34) =       1157.1  [cm-1]   --> A               I+R
     freq (  35-  35) =       1180.4  [cm-1]   --> A               I+R
     freq (  36-  36) =       1180.7  [cm-1]   --> A               I+R

     PHONON       :      5h46m CPU      5h53m WALL

     INITIALIZATION: 
     phq_setup    :      0.09s CPU      0.10s WALL (       1 calls)
     phq_init     :     66.87s CPU     68.93s WALL (       1 calls)

     phq_init     :     66.87s CPU     68.93s WALL (       1 calls)
     set_drhoc    :      1.00s CPU      1.00s WALL (       1 calls)
     init_vloc    :      0.45s CPU      0.45s WALL (       1 calls)
     init_us_1    :      0.15s CPU      0.15s WALL (       1 calls)
     newd         :      0.22s CPU      0.28s WALL (       1 calls)
     drho         :     62.48s CPU     64.53s WALL (       1 calls)
     cmpt_qdipol  :      0.00s CPU      0.00s WALL (       1 calls)

     DIELECTRIC CONSTANT AND EFFECTIVE CHARGES:
     solve_e      :      0.01s CPU      0.26s WALL (       1 calls)
     zstar_eu     :    974.06s CPU    985.41s WALL (       1 calls)

     DYNAMICAL MATRIX:
     phqscf       :  19769.57s CPU  20159.53s WALL (       1 calls)
     dynmatrix    :      0.01s CPU      0.01s WALL (       1 calls)

     phqscf       :  19769.57s CPU  20159.53s WALL (       1 calls)
     solve_linter :  19685.77s CPU  20075.03s WALL (      36 calls)
     drhodv       :     83.68s CPU     84.25s WALL (      36 calls)



     phqscf       :  19769.57s CPU  20159.53s WALL (       1 calls)
     solve_linter :  19685.77s CPU  20075.03s WALL (      36 calls)

     solve_linter :  19685.77s CPU  20075.03s WALL (      36 calls)
     dvqpsi_us    :    209.30s CPU    215.04s WALL (    2592 calls)
     ortho        :    403.64s CPU    404.82s WALL (    9864 calls)
     cgsolve      :  17917.37s CPU  18257.51s WALL (    9864 calls)
     incdrhoscf   :    314.74s CPU    334.80s WALL (    9972 calls)
     addusddens   :    110.15s CPU    110.23s WALL (     310 calls)
     vpsifft      :    141.88s CPU    158.58s WALL (    8568 calls)
     dv_of_drho   :      6.55s CPU      6.75s WALL (     277 calls)
     mix_pot      :      0.93s CPU      1.66s WALL (     274 calls)
     psymdvscf    :      8.36s CPU      8.71s WALL (     274 calls)
     newdq        :     87.27s CPU     87.31s WALL (     274 calls)
     adddvscf     :    132.40s CPU    132.73s WALL (    8568 calls)
     drhodvus     :      0.26s CPU      0.46s WALL (      36 calls)

     dvqpsi_us    :    209.30s CPU    215.04s WALL (    2592 calls)
     dvqpsi_us_on :    150.81s CPU    151.08s WALL (    2592 calls)

     cgsolve      :  17917.37s CPU  18257.51s WALL (    9864 calls)
     ch_psi       :  17065.11s CPU  17403.19s WALL (  223948 calls)

     ch_psi       :  17065.11s CPU  17403.19s WALL (  223948 calls)
     h_psi        :   7519.92s CPU   7839.57s WALL (  223948 calls)
     last         :   7460.28s CPU   7477.30s WALL (  223948 calls)

     h_psi        :   7519.92s CPU   7839.57s WALL (  223948 calls)
     add_vuspsi   :   2046.32s CPU   2047.86s WALL (  223948 calls)

     incdrhoscf   :    314.74s CPU    334.80s WALL (    9972 calls)
     addusdbec    :    170.85s CPU    171.91s WALL (   11268 calls)

     drhodvus     :      0.26s CPU      0.46s WALL (      36 calls)

      General routines
     calbec       :   6223.69s CPU   6259.44s WALL (  505460 calls)
     fft          :     30.52s CPU     31.04s WALL (    7106 calls)
     ffts         :     13.48s CPU     13.87s WALL (    4515 calls)
     fftw         :   2934.90s CPU   3240.56s WALL (15423714 calls)
     davcio       :      7.47s CPU     16.29s WALL (   55186 calls)
     write_rec    :      0.35s CPU      1.42s WALL (     310 calls)


     PHONON       :      5h46m CPU      5h53m WALL


   This run was terminated on:   5: 4: 4   3Jul2026            

=------------------------------------------------------------------------------=
   JOB DONE.
=------------------------------------------------------------------------------=
