
     Program PWSCF v.6.7MaX starts on  2Jul2026 at 23: 2:25 

     This program is part of the open-source Quantum ESPRESSO suite
     for quantum simulation of materials; please cite
         "P. Giannozzi et al., J. Phys.:Condens. Matter 21 395502 (2009);
         "P. Giannozzi et al., J. Phys.:Condens. Matter 29 465901 (2017);
          URL http://www.quantum-espresso.org", 
     in publications or presentations arising from this work. More details at
     http://www.quantum-espresso.org/quote

     Parallel version (MPI), running on     8 processors

     MPI processes distributed on     1 nodes
     K-points division:     npool     =       2
     R & G space division:  proc/nbgrp/npool/nimage =       4
     Waiting for input...
     Reading input from standard input
Warning: card &CELL ignored
Warning: card / ignored

     Current dimensions of program PWSCF are:
     Max number of different atomic species (ntypx) = 10
     Max number of k-points (npk) =  40000
     Max angular momentum in pseudopotentials (lmaxx) =  3
     file Ca.pbe-spn-kjpaw_psl.1.0.0.UPF: wavefunction(s)  3S renormalized
     file O.pbe-n-kjpaw_psl.0.1.UPF: wavefunction(s)  2P renormalized

     Subspace diagonalization in iterative solution of the eigenvalue problem:
     one sub-group per band group will be used
     scalapack distributed-memory algorithm (size of sub-group:  2*  2 procs)


     Parallelization info
     --------------------
     sticks:   dense  smooth     PW     G-vecs:    dense   smooth      PW
     Min         615     307     89                34582    12233    1931
     Max         617     309     90                34583    12234    1934
     Sum        2463    1231    359               138331    48933    7731



     bravais-lattice index     =            0
     lattice parameter (alat)  =       8.8276  a.u.
     unit-cell volume          =    1024.3165 (a.u.)^3
     number of atoms/cell      =           12
     number of atomic types    =            3
     number of electrons       =        80.00
     number of Kohn-Sham states=           40
     kinetic-energy cutoff     =      50.0000  Ry
     charge density cutoff     =     400.0000  Ry
     scf convergence threshold =      1.0E-10
     mixing beta               =       0.3000
     number of iterations used =            8  plain     mixing
     Exchange-correlation= SLA  PW   PBX  PBC
                           (   1   4   3   4   0   0   0)

     celldm(1)=   8.827600  celldm(2)=   0.000000  celldm(3)=   0.000000
     celldm(4)=   0.000000  celldm(5)=   0.000000  celldm(6)=   0.000000

     crystal axes: (cart. coord. in units of alat)
               a(1) = (   0.999991  -0.004183  -0.000000 )  
               a(2) = (  -0.114342   0.993442   0.000000 )  
               a(3) = (  -0.000000  -0.000000   1.499605 )  

     reciprocal axes: (cart. coord. in units 2 pi/alat)
               b(1) = (  1.000490  0.115154  0.000000 )  
               b(2) = (  0.004213  1.007087  0.000000 )  
               b(3) = (  0.000000  0.000000  0.666842 )  


     PseudoPot. # 1 for Ca read from file:
     /data/pseudopotentials/Ca.pbe-spn-kjpaw_psl.1.0.0.UPF
     MD5 check sum: 1e11ab70c77b02a7d7d676f41d47b751
     Pseudo is Projector augmented-wave + core cor, Zval = 10.0
     Generated using &quot;atomic&quot; code by A. Dal Corso  v.6.4.1
     Shape of augmentation charge: PSQ
     Using radial grid of 1169 points,  6 beta functions with: 
                l(1) =   0
                l(2) =   0
                l(3) =   1
                l(4) =   1
                l(5) =   2
                l(6) =   2
     Q(r) pseudized with 0 coefficients 


     PseudoPot. # 2 for S  read from file:
     /data/pseudopotentials/s_pbe_v1.4.uspp.F.UPF
     MD5 check sum: 88d86576ff6df21479756cfb9bdac1df
     Pseudo is Ultrasoft + core correction, Zval =  6.0
     Generated by new atomic code, or converted to UPF format
     Using radial grid of  907 points,  6 beta functions with: 
                l(1) =   0
                l(2) =   0
                l(3) =   1
                l(4) =   1
                l(5) =   2
                l(6) =   2
     Q(r) pseudized with  8 coefficients,  rinner =    1.300   1.300   1.300
                                                       1.300   1.300

     PseudoPot. # 3 for O  read from file:
     /data/pseudopotentials/O.pbe-n-kjpaw_psl.0.1.UPF
     MD5 check sum: 833c495a5d0f9b75bf046115549bffff
     Pseudo is Projector augmented-wave + core cor, Zval =  6.0
     Generated using &quot;atomic&quot; code by A. Dal Corso  v.6.3
     Shape of augmentation charge: BESSEL
     Using radial grid of 1095 points,  4 beta functions with: 
                l(1) =   0
                l(2) =   0
                l(3) =   1
                l(4) =   1
     Q(r) pseudized with 0 coefficients 


     atomic species   valence    mass     pseudopotential
        Ca            10.00    40.07800     Ca( 1.00)
        S              6.00    32.06000     S ( 1.00)
        O              6.00    15.99900     O ( 1.00)

     No symmetry found



   Cartesian axes

     site n.     atom                  positions (alat units)
         1           Ca  tau(   1) = (   0.3108202   0.3471822   1.1247035  )
         2           Ca  tau(   2) = (   0.5748286   0.6420761   0.3749012  )
         3           S   tau(   3) = (   0.7507318   0.8385578   1.1247035  )
         4           S   tau(   4) = (   0.1349170   0.1507005   0.3749012  )
         5           O   tau(   5) = (   0.0649448   0.8123779   1.1247035  )
         6           O   tau(   6) = (   0.8207040   0.1768804   0.3749012  )
         7           O   tau(   7) = (   0.8002753   0.1540618   1.1247035  )
         8           O   tau(   8) = (   0.0853736   0.8351966   0.3749012  )
         9           O   tau(   9) = (   0.2611176   0.2916650   0.1222632  )
        10           O   tau(  10) = (   0.6245312   0.6975933   0.8720656  )
        11           O   tau(  11) = (   0.2611176   0.2916650   0.6275391  )
        12           O   tau(  12) = (   0.6245312   0.6975933   1.3773414  )

     number of k points=    36
                       cart. coord. in units 2pi/alat
        k(    1) = (   0.0000000   0.0000000   0.0000000), wk =   0.0312500
        k(    2) = (   0.0000000   0.0000000   0.1667106), wk =   0.0625000
        k(    3) = (   0.0000000   0.0000000  -0.3334212), wk =   0.0312500
        k(    4) = (   0.0010532   0.2517717   0.0000000), wk =   0.0625000
        k(    5) = (   0.0010532   0.2517717   0.1667106), wk =   0.0625000
        k(    6) = (   0.0010532   0.2517717  -0.3334212), wk =   0.0625000
        k(    7) = (   0.0010532   0.2517717  -0.1667106), wk =   0.0625000
        k(    8) = (  -0.0021065  -0.5035433   0.0000000), wk =   0.0312500
        k(    9) = (  -0.0021065  -0.5035433   0.1667106), wk =   0.0625000
        k(   10) = (  -0.0021065  -0.5035433  -0.3334212), wk =   0.0312500
        k(   11) = (   0.2501226   0.0287884   0.0000000), wk =   0.0625000
        k(   12) = (   0.2501226   0.0287884   0.1667106), wk =   0.0625000
        k(   13) = (   0.2501226   0.0287884  -0.3334212), wk =   0.0625000
        k(   14) = (   0.2501226   0.0287884  -0.1667106), wk =   0.0625000
        k(   15) = (   0.2511758   0.2805601   0.0000000), wk =   0.0625000
        k(   16) = (   0.2511758   0.2805601   0.1667106), wk =   0.0625000
        k(   17) = (   0.2511758   0.2805601  -0.3334212), wk =   0.0625000
        k(   18) = (   0.2511758   0.2805601  -0.1667106), wk =   0.0625000
        k(   19) = (   0.2480162  -0.4747549   0.0000000), wk =   0.0625000
        k(   20) = (   0.2480162  -0.4747549   0.1667106), wk =   0.0625000
        k(   21) = (   0.2480162  -0.4747549  -0.3334212), wk =   0.0625000
        k(   22) = (   0.2480162  -0.4747549  -0.1667106), wk =   0.0625000
        k(   23) = (   0.2490694  -0.2229832   0.0000000), wk =   0.0625000
        k(   24) = (   0.2490694  -0.2229832   0.1667106), wk =   0.0625000
        k(   25) = (   0.2490694  -0.2229832  -0.3334212), wk =   0.0625000
        k(   26) = (   0.2490694  -0.2229832  -0.1667106), wk =   0.0625000
        k(   27) = (  -0.5002452  -0.0575769   0.0000000), wk =   0.0312500
        k(   28) = (  -0.5002452  -0.0575769   0.1667106), wk =   0.0625000
        k(   29) = (  -0.5002452  -0.0575769  -0.3334212), wk =   0.0312500
        k(   30) = (  -0.4991920   0.1941948   0.0000000), wk =   0.0625000
        k(   31) = (  -0.4991920   0.1941948   0.1667106), wk =   0.0625000
        k(   32) = (  -0.4991920   0.1941948  -0.3334212), wk =   0.0625000
        k(   33) = (  -0.4991920   0.1941948  -0.1667106), wk =   0.0625000
        k(   34) = (  -0.5023517  -0.5611202   0.0000000), wk =   0.0312500
        k(   35) = (  -0.5023517  -0.5611202   0.1667106), wk =   0.0625000
        k(   36) = (  -0.5023517  -0.5611202  -0.3334212), wk =   0.0312500

     Dense  grid:   138331 G-vectors     FFT dimensions: (  60,  60,  90)

     Smooth grid:    48933 G-vectors     FFT dimensions: (  40,  40,  60)

     Estimated max dynamical RAM per process >     102.90 MB

     Estimated total dynamical RAM >     823.20 MB

     Check: negative core charge=   -0.000003

     Initial potential from superposition of free atoms

     starting charge   79.99021, renormalised to   80.00000
     Starting wfcs are   56 randomized atomic wfcs
     Checking if some PAW data can be deallocated... 

     total cpu time spent up to now is       10.1 secs

     Self-consistent Calculation

     iteration #  1     ecut=    50.00 Ry     beta= 0.30
     Davidson diagonalization with overlap
     ethr =  1.00E-02,  avg # of iterations =  2.0

     total cpu time spent up to now is       25.3 secs

     total energy              =    -648.68668465 Ry
     estimated scf accuracy    <       3.02632186 Ry

     iteration #  2     ecut=    50.00 Ry     beta= 0.30
     Davidson diagonalization with overlap
     ethr =  3.78E-03,  avg # of iterations =  2.0

     total cpu time spent up to now is       39.7 secs

     total energy              =    -649.18058908 Ry
     estimated scf accuracy    <       0.21559565 Ry

     iteration #  3     ecut=    50.00 Ry     beta= 0.30
     Davidson diagonalization with overlap
     ethr =  2.69E-04,  avg # of iterations =  6.4

     total cpu time spent up to now is       65.1 secs

     total energy              =    -649.31049914 Ry
     estimated scf accuracy    <       0.09826583 Ry

     iteration #  4     ecut=    50.00 Ry     beta= 0.30
     Davidson diagonalization with overlap
     ethr =  1.23E-04,  avg # of iterations =  2.2

     total cpu time spent up to now is       79.9 secs

     total energy              =    -649.33399852 Ry
     estimated scf accuracy    <       0.01569749 Ry

     iteration #  5     ecut=    50.00 Ry     beta= 0.30
     Davidson diagonalization with overlap
     ethr =  1.96E-05,  avg # of iterations =  6.5

     total cpu time spent up to now is      106.4 secs

     total energy              =    -649.34279662 Ry
     estimated scf accuracy    <       0.05297088 Ry

     iteration #  6     ecut=    50.00 Ry     beta= 0.30
     Davidson diagonalization with overlap
     ethr =  1.96E-05,  avg # of iterations =  1.1

     total cpu time spent up to now is      117.3 secs

     total energy              =    -649.31970652 Ry
     estimated scf accuracy    <       0.03432948 Ry

     iteration #  7     ecut=    50.00 Ry     beta= 0.30
     Davidson diagonalization with overlap
     ethr =  1.96E-05,  avg # of iterations =  5.5

     total cpu time spent up to now is      138.6 secs

     total energy              =    -649.33468239 Ry
     estimated scf accuracy    <       0.01254397 Ry

     iteration #  8     ecut=    50.00 Ry     beta= 0.30
     Davidson diagonalization with overlap
     ethr =  1.57E-05,  avg # of iterations =  1.9

     total cpu time spent up to now is      150.9 secs

     total energy              =    -649.33324404 Ry
     estimated scf accuracy    <       0.00388615 Ry

     iteration #  9     ecut=    50.00 Ry     beta= 0.30
     Davidson diagonalization with overlap
     ethr =  4.86E-06,  avg # of iterations =  4.1

     total cpu time spent up to now is      168.6 secs

     total energy              =    -649.33485979 Ry
     estimated scf accuracy    <       0.00016683 Ry

     iteration # 10     ecut=    50.00 Ry     beta= 0.30
     Davidson diagonalization with overlap
     ethr =  2.09E-07,  avg # of iterations =  5.2

     total cpu time spent up to now is      188.2 secs

     total energy              =    -649.33489041 Ry
     estimated scf accuracy    <       0.00018026 Ry

     iteration # 11     ecut=    50.00 Ry     beta= 0.30
     Davidson diagonalization with overlap
     ethr =  2.09E-07,  avg # of iterations =  1.2

     total cpu time spent up to now is      199.2 secs

     total energy              =    -649.33487721 Ry
     estimated scf accuracy    <       0.00008272 Ry

     iteration # 12     ecut=    50.00 Ry     beta= 0.30
     Davidson diagonalization with overlap
     ethr =  1.03E-07,  avg # of iterations =  2.0

     total cpu time spent up to now is      211.9 secs

     total energy              =    -649.33486726 Ry
     estimated scf accuracy    <       0.00003178 Ry

     iteration # 13     ecut=    50.00 Ry     beta= 0.30
     Davidson diagonalization with overlap
     ethr =  3.97E-08,  avg # of iterations =  5.4

     total cpu time spent up to now is      231.0 secs

     total energy              =    -649.33488363 Ry
     estimated scf accuracy    <       0.00000078 Ry

     iteration # 14     ecut=    50.00 Ry     beta= 0.30
     Davidson diagonalization with overlap
     ethr =  9.75E-10,  avg # of iterations =  9.2

     total cpu time spent up to now is      269.8 secs

     total energy              =    -649.33488450 Ry
     estimated scf accuracy    <       0.00001309 Ry

     iteration # 15     ecut=    50.00 Ry     beta= 0.30
     Davidson diagonalization with overlap
     ethr =  9.75E-10,  avg # of iterations =  3.8

     total cpu time spent up to now is      287.5 secs

     total energy              =    -649.33488086 Ry
     estimated scf accuracy    <       0.00000611 Ry

     iteration # 16     ecut=    50.00 Ry     beta= 0.30
     Davidson diagonalization with overlap
     ethr =  9.75E-10,  avg # of iterations =  6.8

     total cpu time spent up to now is      313.0 secs

     total energy              =    -649.33488290 Ry
     estimated scf accuracy    <       0.00000123 Ry

     iteration # 17     ecut=    50.00 Ry     beta= 0.30
     Davidson diagonalization with overlap
     ethr =  9.75E-10,  avg # of iterations =  3.4

     total cpu time spent up to now is      330.1 secs

     total energy              =    -649.33488325 Ry
     estimated scf accuracy    <       0.00000001 Ry

     iteration # 18     ecut=    50.00 Ry     beta= 0.30
     Davidson diagonalization with overlap
     ethr =  1.64E-11,  avg # of iterations =  9.1

     total cpu time spent up to now is      366.9 secs

     total energy              =    -649.33488316 Ry
     estimated scf accuracy    <       0.00000033 Ry

     iteration # 19     ecut=    50.00 Ry     beta= 0.30
     Davidson diagonalization with overlap
     ethr =  1.64E-11,  avg # of iterations =  6.7

     total cpu time spent up to now is      393.7 secs

     total energy              =    -649.33488323 Ry
     estimated scf accuracy    <          1.2E-09 Ry

     iteration # 20     ecut=    50.00 Ry     beta= 0.30
     Davidson diagonalization with overlap
     ethr =  1.55E-12,  avg # of iterations =  4.4

     total cpu time spent up to now is      409.5 secs

     total energy              =    -649.33488323 Ry
     estimated scf accuracy    <          3.3E-10 Ry

     iteration # 21     ecut=    50.00 Ry     beta= 0.30
     Davidson diagonalization with overlap
     ethr =  4.12E-13,  avg # of iterations =  5.9

     total cpu time spent up to now is      431.5 secs

     total energy              =    -649.33488323 Ry
     estimated scf accuracy    <          9.1E-10 Ry

     iteration # 22     ecut=    50.00 Ry     beta= 0.30
     Davidson diagonalization with overlap
     ethr =  4.12E-13,  avg # of iterations =  2.0

     total cpu time spent up to now is      444.8 secs

     total energy              =    -649.33488323 Ry
     estimated scf accuracy    <          3.0E-10 Ry

     iteration # 23     ecut=    50.00 Ry     beta= 0.30
     Davidson diagonalization with overlap
     ethr =  3.80E-13,  avg # of iterations =  4.8

     total cpu time spent up to now is      462.8 secs

     total energy              =    -649.33488323 Ry
     estimated scf accuracy    <          1.0E-10 Ry

     iteration # 24     ecut=    50.00 Ry     beta= 0.30
     Davidson diagonalization with overlap
     ethr =  1.27E-13,  avg # of iterations =  2.1

     total cpu time spent up to now is      474.5 secs

     End of self-consistent calculation

          k = 0.0000 0.0000 0.0000 (  6087 PWs)   bands (ev):

   -33.0899 -33.0829 -18.3366 -18.2515 -14.7685 -14.6610 -14.5697 -14.2841
   -14.2646 -14.2585 -13.6539 -13.6151 -13.5711 -13.5650 -13.4546 -13.2398
    -4.0847  -3.4922  -1.7061  -1.5967  -1.5599  -1.4071  -1.3154  -0.7491
     1.3327   1.6446   1.6942   2.2907   2.3707   2.4595   2.8355   2.9595
     3.0345   3.0361   3.9105   3.9424   4.0055   4.0353   4.2476   4.2960

          k = 0.0000 0.0000 0.1667 (  6090 PWs)   bands (ev):

   -33.0889 -33.0839 -18.3291 -18.2694 -14.7438 -14.6441 -14.5517 -14.2636
   -14.2593 -14.1425 -13.7686 -13.6483 -13.6209 -13.4978 -13.4644 -13.3198
    -3.9477  -3.5221  -1.6923  -1.6150  -1.4899  -1.4250  -1.2504  -0.9151
     1.3852   1.6013   1.7692   2.3938   2.3966   2.4578   2.7034   2.8557
     2.9244   3.0003   3.9417   3.9703   4.0209   4.0342   4.2219   4.2650

          k = 0.0000 0.0000-0.3334 (  6098 PWs)   bands (ev):

   -33.0864 -33.0864 -18.3044 -18.3044 -14.7124 -14.7124 -14.2614 -14.2614
   -14.2517 -14.2517 -13.7039 -13.7039 -13.6346 -13.6346 -13.4080 -13.4080
    -3.6816  -3.6816  -1.6560  -1.6560  -1.3419  -1.3419  -1.2236  -1.2236
     1.4991   1.4991   2.1134   2.1134   2.4395   2.4395   2.6898   2.6898
     2.9203   2.9203   3.9927   3.9927   4.0346   4.0346   4.2083   4.2083

          k = 0.0011 0.2518 0.0000 (  6105 PWs)   bands (ev):

   -33.0893 -33.0824 -18.3381 -18.2595 -14.7462 -14.5690 -14.4913 -14.3023
   -14.1936 -14.1760 -13.8225 -13.7712 -13.5989 -13.5666 -13.5313 -13.2396
    -3.9302  -3.4540  -1.5761  -1.4575  -1.3027  -1.2834  -1.2443  -0.8327
     1.3973   1.7125   1.7411   2.1134   2.1149   2.3953   2.4785   2.6555
     2.8802   2.9249   3.7483   3.8995   4.0855   4.1658   4.3454   4.4715

          k = 0.0011 0.2518 0.1667 (  6104 PWs)   bands (ev):

   -33.0883 -33.0834 -18.3314 -18.2762 -14.7044 -14.5834 -14.4725 -14.2081
   -14.1920 -14.1316 -13.8425 -13.7723 -13.6986 -13.5574 -13.5157 -13.3494
    -3.8045  -3.4597  -1.5458  -1.4519  -1.3547  -1.2439  -1.2223  -0.8947
     1.4432   1.5864   1.7650   2.1481   2.1863   2.2890   2.4774   2.6730
     2.7432   2.8968   3.8307   3.9210   4.0429   4.1702   4.3368   4.4280

          k = 0.0011 0.2518-0.3334 (  6124 PWs)   bands (ev):

   -33.0858 -33.0858 -18.3088 -18.3088 -14.6514 -14.6514 -14.2399 -14.2399
   -14.1825 -14.1825 -13.7668 -13.7668 -13.6932 -13.6932 -13.4900 -13.4900
    -3.5719  -3.5719  -1.4711  -1.4711  -1.3366  -1.3366  -1.0604  -1.0604
     1.5331   1.5331   1.8717   1.8717   2.2640   2.2640   2.5580   2.5580
     2.7757   2.7757   3.9587   3.9587   4.0535   4.0535   4.3628   4.3628

          k = 0.0011 0.2518-0.1667 (  6104 PWs)   bands (ev):

   -33.0883 -33.0834 -18.3314 -18.2762 -14.7044 -14.5834 -14.4725 -14.2081
   -14.1920 -14.1316 -13.8425 -13.7723 -13.6986 -13.5574 -13.5157 -13.3494
    -3.8045  -3.4597  -1.5458  -1.4519  -1.3547  -1.2439  -1.2223  -0.8947
     1.4432   1.5864   1.7650   2.1481   2.1863   2.2890   2.4774   2.6730
     2.7432   2.8968   3.8307   3.9210   4.0429   4.1702   4.3368   4.4280

          k =-0.0021-0.5035 0.0000 (  6120 PWs)   bands (ev):

   -33.0886 -33.0820 -18.3394 -18.2679 -14.7216 -14.3753 -14.3631 -14.3229
   -14.1636 -14.1413 -14.0060 -13.8771 -13.6665 -13.6647 -13.5680 -13.2395
    -3.7187  -3.4830  -1.4891  -1.4640  -1.2819  -0.9240  -0.8405  -0.8145
     1.4916   1.6150   1.6280   1.8086   1.8890   1.9322   2.4927   2.6810
     2.7331   2.7802   3.6227   3.8623   4.0078   4.1148   4.5835   4.7190

          k =-0.0021-0.5035 0.1667 (  6122 PWs)   bands (ev):

   -33.0876 -33.0830 -18.3337 -18.2833 -14.6658 -14.4724 -14.3144 -14.2022
   -14.1480 -14.1262 -13.9876 -13.8650 -13.6971 -13.6741 -13.6114 -13.3652
    -3.6215  -3.4449  -1.4821  -1.4372  -1.3113  -1.0054  -0.8165  -0.7459
     1.3841   1.5177   1.5487   1.8063   1.9875   2.0327   2.4453   2.5652
     2.7491   2.7670   3.7322   3.8634   3.9820   4.1171   4.5738   4.6512

          k =-0.0021-0.5035-0.3334 (  6124 PWs)   bands (ev):

   -33.0853 -33.0853 -18.3133 -18.3133 -14.5644 -14.5644 -14.1843 -14.1843
   -14.1644 -14.1644 -13.8155 -13.8155 -13.7572 -13.7572 -13.5888 -13.5888
    -3.4644  -3.4644  -1.4708  -1.4708  -1.1695  -1.1695  -0.7537  -0.7537
     1.3362   1.3362   1.6705   1.6705   2.1122   2.1122   2.4022   2.4022
     2.7538   2.7538   3.8897   3.8897   4.0102   4.0102   4.5707   4.5707

          k = 0.2501 0.0288 0.0000 (  6105 PWs)   bands (ev):

   -33.0893 -33.0824 -18.3381 -18.2595 -14.7462 -14.5690 -14.4913 -14.3023
   -14.1936 -14.1760 -13.8225 -13.7712 -13.5989 -13.5666 -13.5313 -13.2396
    -3.9302  -3.4540  -1.5761  -1.4575  -1.3027  -1.2834  -1.2443  -0.8327
     1.3973   1.7125   1.7411   2.1134   2.1149   2.3953   2.4785   2.6555
     2.8802   2.9249   3.7483   3.8995   4.0855   4.1658   4.3454   4.4715

          k = 0.2501 0.0288 0.1667 (  6104 PWs)   bands (ev):

   -33.0883 -33.0834 -18.3314 -18.2762 -14.7044 -14.5834 -14.4725 -14.2081
   -14.1920 -14.1316 -13.8425 -13.7723 -13.6986 -13.5574 -13.5157 -13.3494
    -3.8045  -3.4597  -1.5458  -1.4519  -1.3547  -1.2439  -1.2223  -0.8947
     1.4432   1.5864   1.7650   2.1481   2.1863   2.2890   2.4774   2.6730
     2.7432   2.8968   3.8307   3.9210   4.0429   4.1702   4.3368   4.4280

          k = 0.2501 0.0288-0.3334 (  6124 PWs)   bands (ev):

   -33.0858 -33.0858 -18.3088 -18.3088 -14.6514 -14.6514 -14.2399 -14.2399
   -14.1825 -14.1825 -13.7668 -13.7668 -13.6932 -13.6932 -13.4900 -13.4900
    -3.5719  -3.5719  -1.4711  -1.4711  -1.3366  -1.3366  -1.0604  -1.0604
     1.5331   1.5331   1.8717   1.8717   2.2640   2.2640   2.5580   2.5580
     2.7757   2.7757   3.9587   3.9587   4.0535   4.0535   4.3628   4.3628

          k = 0.2501 0.0288-0.1667 (  6104 PWs)   bands (ev):

   -33.0883 -33.0834 -18.3314 -18.2762 -14.7044 -14.5834 -14.4725 -14.2081
   -14.1920 -14.1316 -13.8425 -13.7723 -13.6986 -13.5574 -13.5157 -13.3494
    -3.8045  -3.4597  -1.5458  -1.4519  -1.3547  -1.2439  -1.2223  -0.8947
     1.4432   1.5864   1.7650   2.1481   2.1863   2.2890   2.4774   2.6730
     2.7432   2.8968   3.8307   3.9210   4.0429   4.1702   4.3368   4.4280

          k = 0.2512 0.2806 0.0000 (  6125 PWs)   bands (ev):

   -33.0886 -33.0820 -18.3314 -18.2587 -14.7226 -14.4757 -14.4417 -14.3219
   -14.2372 -14.1579 -14.0541 -13.9185 -13.5680 -13.4877 -13.4651 -13.2393
    -3.7507  -3.4594  -1.4932  -1.2911  -1.2882  -1.1766  -1.0447  -0.9060
     1.4232   1.7032   1.7991   1.9782   2.0554   2.1722   2.2837   2.4577
     2.5357   2.8054   3.6772   4.0002   4.1880   4.3291   4.5290   4.5532

          k = 0.2512 0.2806 0.1667 (  6107 PWs)   bands (ev):

   -33.0876 -33.0830 -18.3256 -18.2743 -14.6518 -14.4707 -14.4466 -14.3911
   -14.1871 -14.0811 -14.0132 -13.8896 -13.6545 -13.4845 -13.4685 -13.3707
    -3.6467  -3.4298  -1.4803  -1.3539  -1.2351  -1.1603  -1.0675  -0.8990
     1.4721   1.6767   1.7440   1.7893   1.9754   2.1975   2.3934   2.4719
     2.5242   2.7274   3.8049   4.0176   4.1375   4.3902   4.4123   4.5337

          k = 0.2512 0.2806-0.3334 (  6128 PWs)   bands (ev):

   -33.0853 -33.0853 -18.3048 -18.3048 -14.5077 -14.5077 -14.4586 -14.4586
   -14.1199 -14.1199 -13.8257 -13.8257 -13.6760 -13.6760 -13.4766 -13.4766
    -3.4705  -3.4705  -1.4481  -1.4481  -1.1170  -1.1170  -1.0337  -1.0337
     1.5539   1.5539   1.7389   1.7389   1.9946   1.9946   2.4979   2.4979
     2.5772   2.5772   4.0681   4.0681   4.1195   4.1195   4.4758   4.4758

          k = 0.2512 0.2806-0.1667 (  6107 PWs)   bands (ev):

   -33.0876 -33.0830 -18.3256 -18.2743 -14.6518 -14.4707 -14.4466 -14.3911
   -14.1871 -14.0811 -14.0132 -13.8896 -13.6545 -13.4845 -13.4685 -13.3707
    -3.6467  -3.4298  -1.4803  -1.3539  -1.2351  -1.1603  -1.0675  -0.8990
     1.4721   1.6767   1.7440   1.7893   1.9754   2.1975   2.3934   2.4719
     2.5242   2.7274   3.8049   4.0176   4.1375   4.3902   4.4123   4.5337

          k = 0.2480-0.4748 0.0000 (  6125 PWs)   bands (ev):

   -33.0881 -33.0816 -18.2923 -18.2244 -14.7220 -14.7004 -14.6175 -14.4706
   -14.4307 -14.3188 -13.6512 -13.5588 -13.5447 -13.4800 -13.4495 -13.2452
    -3.7071  -3.3838  -1.4498  -1.4373  -1.1642  -0.8502  -0.7452  -0.6604
     1.1223   1.4621   1.4979   1.6813   1.8336   2.0351   2.2983   2.4263
     2.4746   2.8161   3.9088   4.0090   4.1573   4.3677   4.6421   4.6950

          k = 0.2480-0.4748 0.1667 (  6128 PWs)   bands (ev):

   -33.0871 -33.0825 -18.2871 -18.2394 -14.7721 -14.7023 -14.5110 -14.4630
   -14.4372 -14.1625 -13.7838 -13.5611 -13.5446 -13.4817 -13.4462 -13.3434
    -3.5909  -3.3536  -1.4666  -1.3930  -1.1688  -0.9483  -0.7255  -0.6573
     1.1613   1.3949   1.5344   1.7001   1.8207   2.0194   2.2736   2.3871
     2.4667   2.6765   3.9963   4.0354   4.1344   4.3558   4.6226   4.6758

          k = 0.2480-0.4748-0.3334 (  6114 PWs)   bands (ev):

   -33.0848 -33.0848 -18.2681 -18.2681 -14.7631 -14.7631 -14.4531 -14.4531
   -14.2100 -14.2100 -13.7264 -13.7264 -13.5406 -13.5406 -13.4210 -13.4210
    -3.3971  -3.3971  -1.4103  -1.4103  -1.1143  -1.1143  -0.6862  -0.6862
     1.2961   1.2961   1.5859   1.5859   1.9496   1.9496   2.2695   2.2695
     2.5124   2.5124   4.0760   4.0760   4.2204   4.2204   4.6357   4.6357

          k = 0.2480-0.4748-0.1667 (  6128 PWs)   bands (ev):

   -33.0871 -33.0825 -18.2871 -18.2394 -14.7721 -14.7023 -14.5110 -14.4630
   -14.4372 -14.1625 -13.7838 -13.5611 -13.5446 -13.4817 -13.4462 -13.3434
    -3.5909  -3.3536  -1.4666  -1.3930  -1.1688  -0.9483  -0.7255  -0.6573
     1.1613   1.3949   1.5344   1.7001   1.8207   2.0194   2.2736   2.3871
     2.4667   2.6765   3.9963   4.0354   4.1344   4.3558   4.6226   4.6758

          k = 0.2491-0.2230 0.0000 (  6133 PWs)   bands (ev):

   -33.0888 -33.0820 -18.2993 -18.2248 -14.8248 -14.7454 -14.7445 -14.2993
   -14.2411 -14.2052 -13.7381 -13.7191 -13.5573 -13.4494 -13.3390 -13.2457
    -3.8850  -3.3711  -1.4525  -1.4493  -1.2431  -1.0696  -1.0172  -0.7865
     1.1421   1.4941   1.5536   2.0014   2.1468   2.2183   2.3668   2.4302
     2.7341   2.8927   3.9046   4.1621   4.1885   4.2014   4.3777   4.4440

          k = 0.2491-0.2230 0.1667 (  6123 PWs)   bands (ev):

   -33.0878 -33.0830 -18.2932 -18.2409 -14.8670 -14.8042 -14.5694 -14.2385
   -14.2088 -14.1557 -13.7593 -13.7240 -13.7222 -13.4352 -13.3671 -13.2767
    -3.7487  -3.3767  -1.4667  -1.4032  -1.2131  -1.0350  -1.0305  -0.9421
     1.2003   1.5019   1.5776   2.0681   2.1453   2.1575   2.3720   2.4216
     2.6608   2.6961   3.9407   4.1133   4.1995   4.2157   4.4054   4.4469

          k = 0.2491-0.2230-0.3334 (  6114 PWs)   bands (ev):

   -33.0854 -33.0854 -18.2720 -18.2720 -14.8635 -14.8635 -14.2625 -14.2625
   -14.1963 -14.1963 -13.7558 -13.7558 -13.6838 -13.6838 -13.3116 -13.3116
    -3.4966  -3.4966  -1.3728  -1.3728  -1.1862  -1.1862  -1.0242  -1.0242
     1.3592   1.3592   1.8399   1.8399   2.1901   2.1901   2.4068   2.4068
     2.5172   2.5172   4.0249   4.0249   4.2189   4.2189   4.4394   4.4394

          k = 0.2491-0.2230-0.1667 (  6123 PWs)   bands (ev):

   -33.0878 -33.0830 -18.2932 -18.2409 -14.8670 -14.8042 -14.5694 -14.2385
   -14.2088 -14.1557 -13.7593 -13.7240 -13.7222 -13.4352 -13.3671 -13.2767
    -3.7487  -3.3767  -1.4667  -1.4032  -1.2131  -1.0350  -1.0305  -0.9421
     1.2003   1.5019   1.5776   2.0681   2.1453   2.1575   2.3720   2.4216
     2.6608   2.6961   3.9407   4.1133   4.1995   4.2157   4.4054   4.4469

          k =-0.5002-0.0576 0.0000 (  6120 PWs)   bands (ev):

   -33.0886 -33.0820 -18.3394 -18.2679 -14.7216 -14.3753 -14.3631 -14.3229
   -14.1636 -14.1413 -14.0060 -13.8771 -13.6665 -13.6647 -13.5680 -13.2395
    -3.7187  -3.4830  -1.4891  -1.4640  -1.2819  -0.9240  -0.8405  -0.8145
     1.4916   1.6150   1.6280   1.8086   1.8890   1.9322   2.4927   2.6810
     2.7331   2.7802   3.6227   3.8623   4.0078   4.1148   4.5835   4.7190

          k =-0.5002-0.0576 0.1667 (  6122 PWs)   bands (ev):

   -33.0876 -33.0830 -18.3337 -18.2833 -14.6658 -14.4724 -14.3144 -14.2022
   -14.1480 -14.1262 -13.9876 -13.8650 -13.6971 -13.6741 -13.6114 -13.3652
    -3.6215  -3.4449  -1.4821  -1.4372  -1.3113  -1.0054  -0.8165  -0.7459
     1.3841   1.5177   1.5487   1.8063   1.9875   2.0327   2.4453   2.5652
     2.7491   2.7670   3.7322   3.8634   3.9820   4.1171   4.5738   4.6512

          k =-0.5002-0.0576-0.3334 (  6124 PWs)   bands (ev):

   -33.0853 -33.0853 -18.3133 -18.3133 -14.5644 -14.5644 -14.1843 -14.1843
   -14.1644 -14.1644 -13.8155 -13.8155 -13.7572 -13.7572 -13.5888 -13.5888
    -3.4644  -3.4644  -1.4708  -1.4708  -1.1695  -1.1695  -0.7537  -0.7537
     1.3362   1.3362   1.6705   1.6705   2.1122   2.1122   2.4022   2.4022
     2.7538   2.7538   3.8897   3.8897   4.0102   4.0102   4.5707   4.5707

          k =-0.4992 0.1942 0.0000 (  6125 PWs)   bands (ev):

   -33.0881 -33.0816 -18.2923 -18.2244 -14.7220 -14.7004 -14.6175 -14.4706
   -14.4307 -14.3188 -13.6512 -13.5588 -13.5447 -13.4800 -13.4495 -13.2452
    -3.7071  -3.3838  -1.4498  -1.4373  -1.1642  -0.8502  -0.7452  -0.6604
     1.1223   1.4621   1.4979   1.6813   1.8336   2.0351   2.2983   2.4263
     2.4746   2.8161   3.9088   4.0090   4.1573   4.3677   4.6421   4.6950

          k =-0.4992 0.1942 0.1667 (  6128 PWs)   bands (ev):

   -33.0871 -33.0825 -18.2871 -18.2394 -14.7721 -14.7023 -14.5110 -14.4630
   -14.4372 -14.1625 -13.7838 -13.5611 -13.5446 -13.4817 -13.4462 -13.3434
    -3.5909  -3.3536  -1.4666  -1.3930  -1.1688  -0.9483  -0.7255  -0.6573
     1.1613   1.3949   1.5344   1.7001   1.8207   2.0194   2.2736   2.3871
     2.4667   2.6765   3.9963   4.0354   4.1344   4.3558   4.6226   4.6758

          k =-0.4992 0.1942-0.3334 (  6114 PWs)   bands (ev):

   -33.0848 -33.0848 -18.2681 -18.2681 -14.7631 -14.7631 -14.4531 -14.4531
   -14.2100 -14.2100 -13.7264 -13.7264 -13.5406 -13.5406 -13.4210 -13.4210
    -3.3971  -3.3971  -1.4103  -1.4103  -1.1143  -1.1143  -0.6862  -0.6862
     1.2961   1.2961   1.5859   1.5859   1.9496   1.9496   2.2695   2.2695
     2.5124   2.5124   4.0760   4.0760   4.2204   4.2204   4.6357   4.6357

          k =-0.4992 0.1942-0.1667 (  6128 PWs)   bands (ev):

   -33.0871 -33.0825 -18.2871 -18.2394 -14.7721 -14.7023 -14.5110 -14.4630
   -14.4372 -14.1625 -13.7838 -13.5611 -13.5446 -13.4817 -13.4462 -13.3434
    -3.5909  -3.3536  -1.4666  -1.3930  -1.1688  -0.9483  -0.7255  -0.6573
     1.1613   1.3949   1.5344   1.7001   1.8207   2.0194   2.2736   2.3871
     2.4667   2.6765   3.9963   4.0354   4.1344   4.3558   4.6226   4.6758

          k =-0.5024-0.5611 0.0000 (  6112 PWs)   bands (ev):

   -33.0876 -33.0811 -18.2422 -18.1789 -14.9045 -14.8236 -14.7223 -14.6364
   -14.5896 -14.3146 -13.5492 -13.4463 -13.3616 -13.3511 -13.3229 -13.2512
    -3.6947  -3.2947  -1.5758  -1.3470  -0.9907  -0.8192  -0.4682  -0.4031
     0.9225   1.2851   1.3984   1.4784   1.6013   1.9326   1.9909   2.2820
     2.3865   2.8381   4.1504   4.2866   4.3316   4.3859   4.6477   4.7986

          k =-0.5024-0.5611 0.1667 (  6128 PWs)   bands (ev):

   -33.0867 -33.0821 -18.2377 -18.1934 -14.9367 -14.8805 -14.6296 -14.5965
   -14.5571 -14.1685 -13.7444 -13.4325 -13.3604 -13.3602 -13.3527 -13.2740
    -3.5615  -3.2701  -1.5681  -1.3329  -0.9832  -0.9612  -0.4596  -0.4136
     1.0016   1.3296   1.3701   1.4633   1.6807   1.9264   1.9728   2.2717
     2.2950   2.6360   4.1730   4.2687   4.3514   4.3892   4.6838   4.7901

          k =-0.5024-0.5611-0.3334 (  6148 PWs)   bands (ev):

   -33.0844 -33.0844 -18.2205 -18.2205 -14.9373 -14.9373 -14.6131 -14.6131
   -14.2271 -14.2271 -13.7177 -13.7177 -13.3565 -13.3565 -13.3045 -13.3045
    -3.3337  -3.3337  -1.4471  -1.4471  -1.0352  -1.0352  -0.4375  -0.4375
     1.2085   1.2085   1.4118   1.4118   1.8386   1.8386   2.1078   2.1078
     2.3238   2.3238   4.2233   4.2233   4.3824   4.3824   4.7505   4.7505

     highest occupied level (ev):     4.7986

!    total energy              =    -649.33488323 Ry
     estimated scf accuracy    <          5.0E-11 Ry

     The total energy is the sum of the following terms:
     one-electron contribution =    -167.04311653 Ry
     hartree contribution      =     125.91416343 Ry
     xc contribution           =    -102.16490665 Ry
     ewald contribution        =    -309.95562543 Ry
     one-center paw contrib.   =    -196.08539805 Ry

     convergence has been achieved in  24 iterations

     Forces acting on atoms (cartesian axes, Ry/au):

     atom    1 type  1   force =    -0.00025498   -0.00028484   -0.00000008
     atom    2 type  1   force =     0.00025500    0.00028482    0.00000008
     atom    3 type  2   force =     0.00134343    0.00150103    0.00000006
     atom    4 type  2   force =    -0.00134346   -0.00150104   -0.00000004
     atom    5 type  3   force =     0.03805733   -0.00395557   -0.00000002
     atom    6 type  3   force =    -0.03805734    0.00395553    0.00000001
     atom    7 type  3   force =    -0.00812476    0.03738932   -0.00000001
     atom    8 type  3   force =     0.00812476   -0.03738931    0.00000001
     atom    9 type  3   force =     0.01641613    0.01833658   -0.03154649
     atom   10 type  3   force =    -0.01641619   -0.01833659   -0.03154660
     atom   11 type  3   force =     0.01641617    0.01833661    0.03154663
     atom   12 type  3   force =    -0.01641611   -0.01833656    0.03154646

     Total force =     0.110761     Total SCF correction =     0.000025

     Writing output data file ./out/CaO4S.save/

     init_run     :      9.18s CPU      9.35s WALL (       1 calls)
     electrons    :    457.84s CPU    464.51s WALL (       1 calls)
     forces       :      5.47s CPU      5.52s WALL (       1 calls)

     Called by init_run:
     wfcinit      :      5.06s CPU      5.14s WALL (       1 calls)
     potinit      :      1.69s CPU      1.72s WALL (       1 calls)
     hinit0       :      2.14s CPU      2.15s WALL (       1 calls)

     Called by electrons:
     c_bands      :    403.32s CPU    407.55s WALL (      24 calls)
     sum_band     :     33.45s CPU     34.89s WALL (      24 calls)
     v_of_rho     :      2.00s CPU      2.05s WALL (      25 calls)
     newd         :      6.10s CPU      7.05s WALL (      25 calls)
     PAW_pot      :     13.23s CPU     13.25s WALL (      25 calls)
     mix_rho      :      0.36s CPU      0.37s WALL (      24 calls)

     Called by c_bands:
     init_us_2    :      1.91s CPU      1.93s WALL (     900 calls)
     cegterg      :    383.58s CPU    387.76s WALL (     432 calls)

     Called by *egterg:
     cdiaghg      :     12.48s CPU     12.68s WALL (    2297 calls)
     h_psi        :    175.47s CPU    179.09s WALL (    2315 calls)
     s_psi        :     58.56s CPU     58.61s WALL (    2315 calls)
     g_psi        :      0.69s CPU      0.70s WALL (    1865 calls)

     Called by h_psi:
     h_psi:calbec :     62.56s CPU     62.73s WALL (    2315 calls)
     vloc_psi     :     52.89s CPU     56.32s WALL (    2315 calls)
     add_vuspsi   :     59.55s CPU     59.58s WALL (    2315 calls)

     General routines
     calbec       :     83.01s CPU     83.24s WALL (    2819 calls)
     fft          :      2.06s CPU      2.14s WALL (     334 calls)
     ffts         :      0.05s CPU      0.05s WALL (      49 calls)
     fftw         :     51.47s CPU     54.80s WALL (  138934 calls)
     interpolate  :      0.14s CPU      0.15s WALL (      25 calls)

     Parallel routines
     fft_scatt_xy :      6.48s CPU      6.84s WALL (  139317 calls)
     fft_scatt_yz :     14.11s CPU     15.22s WALL (  139317 calls)

     PWSCF        :   7m53.17s CPU   8m 0.30s WALL


   This run was terminated on:  23:10:25   2Jul2026            

=------------------------------------------------------------------------------=
   JOB DONE.
=------------------------------------------------------------------------------=
