
     Program DYNMAT v.6.7MaX starts on  5Jul2026 at 14:50:31 

     This program is part of the open-source Quantum ESPRESSO suite
     for quantum simulation of materials; please cite
         "P. Giannozzi et al., J. Phys.:Condens. Matter 21 395502 (2009);
         "P. Giannozzi et al., J. Phys.:Condens. Matter 29 465901 (2017);
          URL http://www.quantum-espresso.org", 
     in publications or presentations arising from this work. More details at
     http://www.quantum-espresso.org/quote

     Parallel version (MPI), running on     1 processors

     MPI processes distributed on     1 nodes

     Reading Dynamical Matrix from file BaO4W.dyn
     ...Force constants read
     ...epsilon and Z* read
     A direction for q was not specified:TO-LO splitting will be absent
     Max |d(i,j)-d*(j,i)| =  0.065776
     Max |d(i,j)-d*(j,i)|/|d(i,j)|: 200.8338%

     Polarizability (A^3 units)
     multiply by 0.555400 for Clausius-Mossotti correction
        39.047717    0.003665   -0.000219
        -0.004628   39.048037    0.000472
        -0.000444    0.000393   39.164374

     IR activities are in (D/A)^2/amu units

# mode   [cm-1]    [THz]      IR
    1   -234.06   -7.0170    0.0346
    2   -234.05   -7.0167    0.0350
    3   -220.85   -6.6209    0.0000
    4   -193.25   -5.7936    0.0000
    5   -193.25   -5.7934    0.0000
    6   -172.67   -5.1766    0.0000
    7    -23.65   -0.7091    0.1175
    8      9.10    0.2728    0.0456
    9      9.10    0.2728    0.0455
   10     60.21    1.8049    0.0000
   11     60.32    1.8084    0.9820
   12     68.35    2.0492    0.0001
   13     68.36    2.0494    0.0001
   14    100.66    3.0176    3.0526
   15    100.66    3.0177    3.0587
   16    166.06    4.9784    7.0241
   17    178.25    5.3439    0.0000
   18    178.26    5.3441    0.0000
   19    241.85    7.2505    0.0000
   20    246.41    7.3873    5.2082
   21    246.42    7.3875    5.1952
   22    277.27    8.3123    0.0000
   23    314.27    9.4216    0.0000
   24    424.66   12.7311    0.0000
   25    424.67   12.7314    0.0000
   26    474.60   14.2281    0.6112
   27    601.73   18.0393    0.0000
   28    626.69   18.7877    0.0000
   29    938.69   28.1411   35.1964
   30    949.57   28.4673    0.0000
   31    953.43   28.5832    0.0573
   32    953.44   28.5833    0.0597
   33    954.72   28.6218   38.1171
   34    954.72   28.6218   38.1103
   35   1118.39   33.5285    0.0001
   36   1120.61   33.5950    0.0000

     DYNMAT       :      0.01s CPU      0.01s WALL


   This run was terminated on:  14:50:31   5Jul2026            

=------------------------------------------------------------------------------=
   JOB DONE.
=------------------------------------------------------------------------------=
0    -0.141555   0.000000   )
 ( -0.043365   0.000000    -0.321548   0.000000     0.140407   0.000000   )
 (  0.042905   0.000000     0.321398   0.000000     0.140757   0.000000   )
 ( -0.042621   0.000000    -0.321394   0.000000    -0.141191   0.000000   )
 (  0.321722   0.000000    -0.043170   0.000000     0.140727   0.000000   )
     freq (    4) =      -5.793612 [THz] =    -193.254098 [cm-1]
 ( -0.102380   0.000000    -0.025926   0.000000     0.000003   0.000000   )
 (  0.102250   0.000000     0.025717   0.000000     0.000005   0.000000   )
 (  0.042990   0.000000     0.037724   0.000000    -0.000001   0.000000   )
 ( -0.042540   0.000000    -0.037331   0.000000     0.000001   0.000000   )
 ( -0.172367   0.000000     0.095634   0.000000     0.069256   0.000000   )
 ( -0.172414   0.000000     0.095643   0.000000    -0.069237   0.000000   )
 (  0.170504   0.000000    -0.095107   0.000000     0.070660   0.000000   )
 ( -0.114030   0.000000     0.248753   0.000000    -0.351178   0.000000   )
 (  0.116479   0.000000    -0.249093   0.000000     0.353591   0.000000   )
 (  0.116451   0.000000    -0.249113   0.000000    -0.353560   0.000000   )
 ( -0.114058   0.000000     0.248744   0.000000     0.351212   0.000000   )
 (  0.170546   0.000000    -0.095110   0.000000    -0.070643   0.000000   )
     freq (    5) =      -5.793382 [THz] =    -193.246420 [cm-1]
 ( -0.025716   0.000000     0.102257   0.000000    -0.000005   0.000000   )
 (  0.025927   0.000000    -0.102386   0.000000    -0.000003   0.000000   )
 (  0.037326   0.000000    -0.042542   0.000000    -0.000008   0.000000   )
 ( -0.037723   0.000000     0.042993   0.000000     0.000003   0.000000   )
 ( -0.248728   0.000000    -0.114029   0.000000    -0.351179   0.000000   )
 ( -0.248751   0.000000    -0.114048   0.000000     0.351202   0.000000   )
 (  0.249094   0.000000     0.116451   0.000000    -0.353578   0.000000   )
 ( -0.095640   0.000000    -0.172403   0.000000    -0.069239   0.000000   )
 (  0.095109   0.000000     0.170521   0.000000     0.070667   0.000000   )
 (  0.095106   0.000000     0.170520   0.000000    -0.070645   0.000000   )
 ( -0.095654   0.000000    -0.172379   0.000000     0.069265   0.000000   )
 (  0.249112   0.000000     0.116478   0.000000     0.353589   0.000000   )
     freq (    6) =      -5.176620 [THz] =    -172.673445 [cm-1]
 (  0.000054   0.000000     0.000000   0.000000    -0.129371   0.000000   )
 (  0.000037   0.000000     0.000017   0.000000     0.129372   0.000000   )
 ( -0.000032   0.000000    -0.000027   0.000000    -0.424906   0.000000   )
 ( -0.000032   0.000000    -0.000036   0.000000     0.424905   0.000000   )
 ( -0.169479   0.000000    -0.201940   0.000000     0.077382   0.000000   )
 (  0.169555   0.000000     0.201935   0.000000     0.077179   0.000000   )
 ( -0.171525   0.000000    -0.201162   0.000000    -0.077288   0.000000   )
 (  0.201718   0.000000    -0.169566   0.000000    -0.077466   0.000000   )
 ( -0.201345   0.000000     0.171662   0.000000     0.076968   0.000000   )
 (  0.200932   0.000000    -0.171599   0.000000     0.077411   0.000000   )
 ( -0.202108   0.000000     0.169656   0.000000    -0.077043   0.000000   )
 (  0.171553   0.000000     0.201162   0.000000    -0.077141   0.000000   )
     freq (    7) =      -0.709130 [THz] =     -23.654045 [cm-1]
 (  0.000010   0.000000     0.000021   0.000000     0.286933   0.000000   )
 ( -0.000007   0.000000    -0.000020   0.000000     0.286933   0.000000   )
 ( -0.000016   0.000000     0.000009   0.000000     0.178629   0.000000   )
 (  0.000017   0.000000    -0.000007   0.000000     0.178629   0.000000   )
 (  0.042283   0.000000     0.062057   0.000000     0.301287   0.000000   )
 ( -0.042262   0.000000    -0.062055   0.000000     0.301274   0.000000   )
 ( -0.043136   0.000000    -0.061647   0.000000     0.301353   0.000000   )
 (  0.062044   0.000000    -0.042285   0.000000     0.301296   0.000000   )
 (  0.061665   0.000000    -0.043129   0.000000     0.301336   0.000000   )
 ( -0.061637   0.000000     0.043139   0.000000     0.301361   0.000000   )
 ( -0.062070   0.000000     0.042277   0.000000     0.301269   0.000000   )
 (  0.043119   0.000000     0.061653   0.000000     0.301343   0.000000   )
     freq (    8) =       0.272776 [THz] =       9.098814 [cm-1]
 (  0.325501   0.000000    -0.053773   0.000000    -0.000008   0.000000   )
 (  0.325566   0.000000    -0.055004   0.000000     0.000009   0.000000   )
 (  0.281442   0.000000    -0.089585   0.000000    -0.000008   0.000000   )
 (  0.281862   0.000000    -0.089051   0.000000     0.000001   0.000000   )
 (  0.257181   0.000000    -0.055323   0.000000     0.016461   0.000000   )
 (  0.257220   0.000000    -0.055317   0.000000    -0.016479   0.000000   )
 (  0.256852   0.000000    -0.055840   0.000000    -0.016562   0.000000   )
 (  0.248699   0.000000    -0.143781   0.000000    -0.001556   0.000000   )
 (  0.248381   0.000000    -0.143822   0.000000    -0.001954   0.000000   )
 (  0.248380   0.000000    -0.143818   0.000000     0.001964   0.000000   )
 (  0.248693   0.000000    -0.143776   0.000000     0.001550   0.000000   )
 (  0.256891   0.000000    -0.055821   0.000000     0.016584   0.000000   )
     freq (    9) =       0.272784 [THz] =       9.099098 [cm-1]
 (  0.054992   0.000000     0.325544   0.000000     0.000060   0.000000   )
 (  0.053779   0.000000     0.325484   0.000000    -0.000060   0.000000   )
 (  0.089048   0.000000     0.281856   0.000000    -0.000031   0.000000   )
 (  0.089583   0.000000     0.281441   0.000000     0.000023   0.000000   )
 (  0.143767   0.000000     0.248685   0.000000    -0.001550   0.000000   )
 (  0.143802   0.000000     0.248703   0.000000     0.001546   0.000000   )
 (  0.143807   0.000000     0.248362   0.000000     0.001956   0.000000   )
 (  0.055348   0.000000     0.257229   0.000000    -0.016479   0.000000   )
 (  0.055828   0.000000     0.256869   0.000000    -0.016556   0.000000   )
 (  0.055848   0.000000     0.256903   0.000000     0.016586   0.000000   )
 (  0.055321   0.000000     0.257199   0.000000     0.016446   0.000000   )
 (  0.143839   0.000000     0.248390   0.000000    -0.001953   0.000000   )
     freq (   10) =       1.804921 [THz] =      60.205682 [cm-1]
 (  0.000209   0.000000     0.000066   0.000000    -0.685486   0.000000   )
 (  0.000104   0.000000     0.000116   0.000000     0.684535   0.000000   )
 ( -0.000066   0.000000     0.000045   0.000000     0.147136   0.000000   )
 ( -0.000096   0.000000     0.000021   0.000000    -0.145279   0.000000   )
 (  0.014618   0.000000     0.032932   0.000000    -0.031690   0.000000   )
 ( -0.014896   0.000000    -0.032815   0.000000    -0.031739   0.000000   )
 (  0.013509   0.000000     0.035424   0.000000     0.030829   0.000000   )
 ( -0.034478   0.000000     0.015346   0.000000     0.030844   0.000000   )
 (  0.033721   0.000000    -0.012962   0.000000    -0.031773   0.000000   )
 ( -0.033870   0.000000     0.013151   0.000000    -0.031739   0.000000   )
 (  0.034275   0.000000    -0.015144   0.000000     0.030986   0.000000   )
 ( -0.013691   0.000000    -0.035230   0.000000     0.030954   0.000000   )
     freq (   11) =       1.808377 [THz] =      60.320968 [cm-1]
 (  0.000283   0.000000    -0.000326   0.000000     0.159959   0.000000   )
 ( -0.000289   0.000000     0.000328   0.000000     0.161595   0.000000   )
 (  0.000176   0.000000     0.000049   0.000000    -0.314116   0.000000   )
 ( -0.000180   0.000000    -0.000056   0.000000    -0.314466   0.000000   )
 (  0.086613   0.000000     0.257639   0.000000     0.141549   0.000000   )
 ( -0.086873   0.000000    -0.258092   0.000000     0.141913   0.000000   )
 ( -0.087904   0.000000    -0.256423   0.000000     0.141103   0.000000   )
 (  0.257770   0.000000    -0.086778   0.000000     0.141672   0.000000   )
 (  0.256736   0.000000    -0.088033   0.000000     0.141340   0.000000   )
 ( -0.256716   0.000000     0.088117   0.000000     0.141074   0.000000   )
 ( -0.257801   0.000000     0.086673   0.000000     0.141938   0.000000   )
 (  0.088145   0.000000     0.256867   0.000000     0.141465   0.000000   )
     freq (   12) =       2.049169 [THz] =      68.352916 [cm-1]
 ( -0.450238   0.000000     0.010373   0.000000     0.000125   0.000000   )
 (  0.449927   0.000000    -0.007086   0.000000     0.000214   0.000000   )
 ( -0.069334   0.000000    -0.143040   0.000000    -0.000272   0.000000   )
 (  0.069635   0.000000     0.142181   0.000000    -0.000279   0.000000   )
 (  0.143265   0.000000     0.100882   0.000000     0.030217   0.000000   )
 (  0.143082   0.000000     0.100508   0.000000    -0.030034   0.000000   )
 ( -0.145532   0.000000    -0.101168   0.000000     0.030872   0.000000   )
 (  0.163040   0.000000    -0.106290   0.000000     0.256756   0.000000   )
 ( -0.164040   0.000000     0.104943   0.000000    -0.258104   0.000000   )
 ( -0.164461   0.000000     0.105057   0.000000     0.258278   0.000000   )
 (  0.162616   0.000000    -0.106166   0.000000    -0.256573   0.000000   )
 ( -0.145335   0.000000    -0.100792   0.000000    -0.030680   0.000000   )
     freq (   13) =       2.049383 [THz] =      68.360068 [cm-1]
 ( -0.007078   0.000000    -0.449934   0.000000    -0.000110   0.000000   )
 (  0.010380   0.000000     0.450204   0.000000    -0.000154   0.000000   )
 (  0.142187   0.000000    -0.069636   0.000000     0.000319   0.000000   )
 ( -0.143041   0.000000     0.069350   0.000000     0.000322   0.000000   )
 ( -0.106288   0.000000    -0.163067   0.000000    -0.256789   0.000000   )
 ( -0.106135   0.000000    -0.162587   0.000000     0.256561   0.000000   )
 (  0.105094   0.000000     0.164499   0.000000    -0.258323   0.000000   )
 (  0.100447   0.000000    -0.143081   0.000000     0.029996   0.000000   )
 ( -0.101224   0.000000     0.145514   0.000000    -0.030874   0.000000   )
 ( -0.100714   0.000000     0.145369   0.000000     0.030639   0.000000   )
 (  0.100959   0.000000    -0.143231   0.000000    -0.030236   0.000000   )
 (  0.104936   0.000000     0.164014   0.000000     0.258091   0.000000   )
     freq (   14) =       3.017589 [THz] =     100.655933 [cm-1]
 ( -0.273504   0.000000    -0.178106   0.000000    -0.000130   0.000000   )
 ( -0.272834   0.000000    -0.176024   0.000000     0.000132   0.000000   )
 (  0.158858   0.000000     0.106302   0.000000    -0.000020   0.000000   )
 (  0.158582   0.000000     0.108393   0.000000     0.000018   0.000000   )
 (  0.398557   0.000000     0.003688   0.000000     0.019853   0.000000   )
 (  0.398636   0.000000     0.003713   0.000000    -0.019865   0.000000   )
 (  0.398642   0.000000     0.002763   0.000000    -0.021062   0.000000   )
 (  0.127109   0.000000    -0.032875   0.000000     0.048860   0.000000   )
 (  0.125260   0.000000    -0.032001   0.000000     0.047794   0.000000   )
 (  0.125292   0.000000    -0.032044   0.000000    -0.047813   0.000000   )
 (  0.127075   0.000000    -0.032831   0.000000    -0.048842   0.000000   )
 (  0.398722   0.000000     0.002789   0.000000     0.021073   0.000000   )
     freq (   15) =       3.017656 [THz] =     100.658161 [cm-1]
 ( -0.176010   0.000000     0.272830   0.000000    -0.000049   0.000000   )
 ( -0.178111   0.000000     0.273530   0.000000     0.000047   0.000000   )
 (  0.108407   0.000000    -0.158585   0.000000     0.000003   0.000000   )
 (  0.106302   0.000000    -0.158853   0.000000     0.000006   0.000000   )
 ( -0.032864   0.000000    -0.127094   0.000000    -0.048861   0.000000   )
 ( -0.032821   0.000000    -0.127080   0.000000     0.048836   0.000000   )
 ( -0.032011   0.000000    -0.125263   0.000000     0.047785   0.000000   )
 (  0.003689   0.000000    -0.398659   0.000000     0.019861   0.000000   )
 (  0.002762   0.000000    -0.398628   0.000000     0.021028   0.000000   )
 (  0.002768   0.000000    -0.398737   0.000000    -0.021083   0.000000   )
 (  0.003703   0.000000    -0.398547   0.000000    -0.019815   0.000000   )
 ( -0.031979   0.000000    -0.125260   0.000000    -0.047768   0.000000   )
     freq (   16) =       4.978400 [THz] =     166.061544 [cm-1]
 (  0.000041   0.000000     0.000015   0.000000     0.186096   0.000000   )
 ( -0.000039   0.000000    -0.000016   0.000000     0.186097   0.000000   )
 (  0.000021   0.000000    -0.000054   0.000000    -0.026919   0.000000   )
 ( -0.000022   0.000000     0.000054   0.000000    -0.026919   0.000000   )
 ( -0.046306   0.000000    -0.166975   0.000000    -0.293690   0.000000   )
 (  0.046266   0.000000     0.167090   0.000000    -0.293691   0.000000   )
 (  0.047238   0.000000     0.166250   0.000000    -0.293493   0.000000   )
 ( -0.166979   0.000000     0.046371   0.000000    -0.293744   0.000000   )
 ( -0.166323   0.000000     0.047224   0.000000    -0.293441   0.000000   )
 (  0.166255   0.000000    -0.047298   0.000000    -0.293546   0.000000   )
 (  0.167047   0.000000    -0.046297   0.000000    -0.293640   0.000000   )
 ( -0.047200   0.000000    -0.166367   0.000000    -0.293498   0.000000   )
     freq (   17) =       5.343933 [THz] =     178.254433 [cm-1]
 ( -0.021560   0.000000     0.130008   0.000000    -0.000029   0.000000   )
 (  0.022068   0.000000    -0.130900   0.000000    -0.000029   0.000000   )
 (  0.322837   0.000000    -0.004399   0.000000     0.000039   0.000000   )
 ( -0.322673   0.000000     0.005165   0.000000     0.000037   0.000000   )
 (  0.174319   0.000000    -0.120145   0.000000     0.195401   0.000000   )
 (  0.174266   0.000000    -0.120108   0.000000    -0.195332   0.000000   )
 ( -0.174492   0.000000     0.121303   0.000000     0.194919   0.000000   )
 (  0.324433   0.000000    -0.000346   0.000000     0.020564   0.000000   )
 ( -0.325542   0.000000     0.003373   0.000000    -0.023179   0.000000   )
 ( -0.325561   0.000000     0.003351   0.000000     0.023235   0.000000   )
 (  0.324418   0.000000    -0.000378   0.000000    -0.020518   0.000000   )
 ( -0.174440   0.000000     0.121268   0.000000    -0.194847   0.000000   )
     freq (   18) =       5.344061 [THz] =     178.258681 [cm-1]
 ( -0.130895   0.000000    -0.022068   0.000000     0.000067   0.000000   )
 (  0.129999   0.000000     0.021569   0.000000     0.000068   0.000000   )
 (  0.005169   0.000000     0.322666   0.000000    -0.000000   0.000000   )
 ( -0.004402   0.000000    -0.322837   0.000000    -0.000003   0.000000   )
 ( -0.000400   0.000000    -0.324493   0.000000    -0.020682   0.000000   )
 ( -0.000347   0.000000    -0.324356   0.000000     0.020417   0.000000   )
 (  0.003406   0.000000     0.325630   0.000000    -0.023368   0.000000   )
 ( -0.120201   0.000000    -0.174277   0.000000     0.195230   0.000000   )
 (  0.121194   0.000000     0.174481   0.000000    -0.195020   0.000000   )
 (  0.121367   0.000000     0.174448   0.000000     0.194742   0.000000   )
 ( -0.120031   0.000000    -0.174324   0.000000    -0.195511   0.000000   )
 (  0.003349   0.000000     0.325481   0.000000     0.023093   0.000000   )
     freq (   19) =       7.250514 [THz] =     241.851101 [cm-1]
 ( -0.000015   0.000000     0.000004   0.000000    -0.000378   0.000000   )
 (  0.000006   0.000000    -0.000004   0.000000     0.000391   0.000000   )
 (  0.000006   0.000000    -0.000013   0.000000    -0.000470   0.000000   )
 (  0.000001   0.000000    -0.000004   0.000000     0.000471   0.000000   )
 ( -0.294214   0.000000     0.189877   0.000000     0.010552   0.000000   )
 (  0.294255   0.000000    -0.189885   0.000000     0.010516   0.000000   )
 (  0.300995   0.000000    -0.191209   0.000000     0.007031   0.000000   )
 ( -0.189882   0.000000    -0.294182   0.000000    -0.010601   0.000000   )
 ( -0.191289   0.000000    -0.301038   0.000000    -0.007093   0.000000   )
 (  0.191281   0.000000     0.301026   0.000000    -0.007117   0.000000   )
 (  0.189913   0.000000     0.294296   0.000000    -0.010513   0.000000   )
 ( -0.301067   0.000000     0.191314   0.000000     0.007106   0.000000   )
     freq (   20) =       7.387331 [THz] =     246.414838 [cm-1]
 ( -0.043523   0.000000     0.012229   0.000000     0.000003   0.000000   )
 ( -0.043743   0.000000     0.012074   0.000000    -0.000002   0.000000   )
 (  0.029247   0.000000    -0.092057   0.000000     0.000007   0.000000   )
 (  0.029703   0.000000    -0.091656   0.000000    -0.000008   0.000000   )
 ( -0.048820   0.000000     0.238769   0.000000     0.306788   0.000000   )
 ( -0.049053   0.000000     0.238860   0.000000    -0.306758   0.000000   )
 ( -0.049059   0.000000     0.238365   0.000000    -0.306557   0.000000   )
 (  0.109279   0.000000     0.262292   0.000000    -0.103417   0.000000   )
 (  0.109532   0.000000     0.260887   0.000000    -0.102299   0.000000   )
 (  0.109474   0.000000     0.260989   0.000000     0.102422   0.000000   )
 (  0.109244   0.000000     0.262046   0.000000     0.103296   0.000000   )
 ( -0.049149   0.000000     0.238363   0.000000     0.306522   0.000000   )
     freq (   21) =       7.387494 [THz] =     246.420268 [cm-1]
 (  0.012076   0.000000     0.043744   0.000000    -0.000007   0.000000   )
 (  0.012231   0.000000     0.043524   0.000000     0.000007   0.000000   )
 ( -0.091657   0.000000    -0.029708   0.000000    -0.000023   0.000000   )
 ( -0.092055   0.000000    -0.029249   0.000000     0.000022   0.000000   )
 (  0.262135   0.000000    -0.109295   0.000000     0.103319   0.000000   )
 (  0.262196   0.000000    -0.109233   0.000000    -0.103388   0.000000   )
 (  0.260910   0.000000    -0.109550   0.000000    -0.102319   0.000000   )
 (  0.238799   0.000000     0.048910   0.000000     0.306753   0.000000   )
 (  0.238382   0.000000     0.049121   0.000000     0.306561   0.000000   )
 (  0.238363   0.000000     0.049090   0.000000    -0.306523   0.000000   )
 (  0.238833   0.000000     0.048965   0.000000    -0.306791   0.000000   )
 (  0.260948   0.000000    -0.109471   0.000000     0.102389   0.000000   )
     freq (   22) =       8.312331 [THz] =     277.269516 [cm-1]
 ( -0.000001   0.000000    -0.000004   0.000000     0.008278   0.000000   )
 ( -0.000001   0.000000    -0.000004   0.000000    -0.008277   0.000000   )
 (  0.000003   0.000000    -0.000012   0.000000     0.023664   0.000000   )
 (  0.000002   0.000000    -0.000013   0.000000    -0.023664   0.000000   )
 ( -0.314448   0.000000     0.048762   0.000000    -0.161052   0.000000   )
 (  0.314394   0.000000    -0.048631   0.000000    -0.161181   0.000000   )
 ( -0.307538   0.000000     0.044797   0.000000     0.160981   0.000000   )
 ( -0.048685   0.000000    -0.314354   0.000000     0.161080   0.000000   )
 (  0.044738   0.000000     0.307568   0.000000    -0.161080   0.000000   )
 ( -0.044717   0.000000    -0.307445   0.000000    -0.161015   0.000000   )
 (  0.048707   0.000000     0.314477   0.000000     0.161146   0.000000   )
 (  0.307480   0.000000    -0.044661   0.000000     0.161110   0.000000   )
     freq (   23) =       9.421634 [THz] =     314.271870 [cm-1]
 ( -0.000001   0.000000    -0.000004   0.000000     0.000018   0.000000   )
 ( -0.000001   0.000000    -0.000004   0.000000     0.000025   0.000000   )
 (  0.000005   0.000000     0.000007   0.000000    -0.000109   0.000000   )
 (  0.000005   0.000000     0.000005   0.000000    -0.000112   0.000000   )
 (  0.075415   0.000000    -0.241709   0.000000    -0.245859   0.000000   )
 ( -0.075441   0.000000     0.241683   0.000000    -0.245792   0.000000   )
 (  0.076069   0.000000    -0.242697   0.000000     0.246522   0.000000   )
 ( -0.241758   0.000000    -0.075447   0.000000    -0.245871   0.000000   )
 (  0.242681   0.000000     0.076071   0.000000     0.246477   0.000000   )
 ( -0.242735   0.000000    -0.076084   0.000000     0.246538   0.000000   )
 (  0.241704   0.000000     0.075429   0.000000    -0.245816   0.000000   )
 ( -0.076084   0.000000     0.242668   0.000000     0.246457   0.000000   )
     freq (   24) =      12.731107 [THz] =     424.664026 [cm-1]
 (  0.000289   0.000000     0.011755   0.000000     0.000001   0.000000   )
 ( -0.000258   0.000000    -0.011796   0.000000     0.000001   0.000000   )
 ( -0.037506   0.000000     0.010557   0.000000     0.000001   0.000000   )
 (  0.037357   0.000000    -0.010490   0.000000     0.000001   0.000000   )
 ( -0.014581   0.000000    -0.175843   0.000000    -0.192254   0.000000   )
 ( -0.014536   0.000000    -0.175865   0.000000     0.192254   0.000000   )
 (  0.014737   0.000000     0.175526   0.000000    -0.191766   0.000000   )
 (  0.250465   0.000000     0.339956   0.000000     0.056106   0.000000   )
 ( -0.250193   0.000000    -0.339561   0.000000    -0.055659   0.000000   )
 ( -0.250264   0.000000    -0.339692   0.000000     0.055653   0.000000   )
 (  0.250399   0.000000     0.339827   0.000000    -0.056118   0.000000   )
 (  0.014693   0.000000     0.175543   0.000000     0.191764   0.000000   )
     freq (   25) =      12.731390 [THz] =     424.673458 [cm-1]
 ( -0.011795   0.000000     0.000258   0.000000     0.000004   0.000000   )
 (  0.011754   0.000000    -0.000289   0.000000     0.000005   0.000000   )
 ( -0.010491   0.000000    -0.037355   0.000000     0.000009   0.000000   )
 (  0.010560   0.000000     0.037504   0.000000     0.000009   0.000000   )
 (  0.339786   0.000000    -0.250410   0.000000    -0.056131   0.000000   )
 (  0.339993   0.000000    -0.250452   0.000000     0.056079   0.000000   )
 ( -0.339524   0.000000     0.250211   0.000000    -0.055675   0.000000   )
 ( -0.175782   0.000000     0.014704   0.000000    -0.192268   0.000000   )
 (  0.175618   0.000000    -0.014575   0.000000     0.191749   0.000000   )
 (  0.175456   0.000000    -0.014861   0.000000    -0.191771   0.000000   )
 ( -0.175936   0.000000     0.014420   0.000000     0.192236   0.000000   )
 ( -0.339732   0.000000     0.250253   0.000000     0.055627   0.000000   )
     freq (   26) =      14.228127 [THz] =     474.599221 [cm-1]
 (  0.000001   0.000000    -0.000002   0.000000     0.009458   0.000000   )
 ( -0.000001   0.000000     0.000002   0.000000     0.009458   0.000000   )
 (  0.000012   0.000000     0.000012   0.000000     0.012501   0.000000   )
 ( -0.000012   0.000000    -0.000012   0.000000     0.012501   0.000000   )
 ( -0.317440   0.000000     0.154360   0.000000    -0.026995   0.000000   )
 (  0.317193   0.000000    -0.154120   0.000000    -0.027074   0.000000   )
 (  0.316890   0.000000    -0.153658   0.000000    -0.027475   0.000000   )
 (  0.154275   0.000000     0.317258   0.000000    -0.026978   0.000000   )
 (  0.153504   0.000000     0.316807   0.000000    -0.027574   0.000000   )
 ( -0.153570   0.000000    -0.316705   0.000000    -0.027457   0.000000   )
 ( -0.154208   0.000000    -0.317360   0.000000    -0.027096   0.000000   )
 ( -0.316643   0.000000     0.153419   0.000000    -0.027553   0.000000   )
     freq (   27) =      18.039301 [THz] =     601.726327 [cm-1]
 ( -0.000000   0.000000    -0.000000   0.000000     0.000016   0.000000   )
 (  0.000000   0.000000     0.000000   0.000000    -0.000016   0.000000   )
 (  0.000001   0.000000     0.000003   0.000000     0.000083   0.000000   )
 ( -0.000002   0.000000    -0.000003   0.000000    -0.000081   0.000000   )
 ( -0.145587   0.000000    -0.222468   0.000000    -0.238874   0.000000   )
 (  0.145570   0.000000     0.222490   0.000000    -0.238861   0.000000   )
 (  0.148730   0.000000     0.215372   0.000000    -0.231840   0.000000   )
 (  0.222495   0.000000    -0.145587   0.000000     0.238861   0.000000   )
 (  0.215372   0.000000    -0.148723   0.000000     0.231819   0.000000   )
 ( -0.215397   0.000000     0.148729   0.000000     0.231832   0.000000   )
 ( -0.222469   0.000000     0.145582   0.000000     0.238849   0.000000   )
 ( -0.148712   0.000000    -0.215394   0.000000    -0.231827   0.000000   )
     freq (   28) =      18.787720 [THz] =     626.690898 [cm-1]
 ( -0.000001   0.000000     0.000001   0.000000    -0.003348   0.000000   )
 ( -0.000001   0.000000     0.000001   0.000000     0.003348   0.000000   )
 (  0.000000   0.000000    -0.000001   0.000000    -0.009217   0.000000   )
 (  0.000001   0.000000    -0.000001   0.000000     0.009217   0.000000   )
 ( -0.096875   0.000000     0.231845   0.000000     0.243028   0.000000   )
 (  0.096881   0.000000    -0.231842   0.000000     0.243021   0.000000   )
 ( -0.092353   0.000000     0.238126   0.000000    -0.250088   0.000000   )
 ( -0.231838   0.000000    -0.096858   0.000000    -0.242981   0.000000   )
 (  0.238120   0.000000     0.092347   0.000000     0.250058   0.000000   )
 ( -0.238121   0.000000    -0.092339   0.000000     0.250046   0.000000   )
 (  0.231837   0.000000     0.096862   0.000000    -0.242992   0.000000   )
 (  0.092365   0.000000    -0.238130   0.000000    -0.250088   0.000000   )
     freq (   29) =      28.141115 [THz] =     938.686566 [cm-1]
 ( -0.000001   0.000000     0.000000   0.000000    -0.002750   0.000000   )
 (  0.000001   0.000000     0.000000   0.000000    -0.002749   0.000000   )
 (  0.000015   0.000000     0.000024   0.000000    -0.060916   0.000000   )
 ( -0.000014   0.000000    -0.000024   0.000000    -0.060910   0.000000   )
 ( -0.149364   0.000000    -0.260609   0.000000     0.184038   0.000000   )
 (  0.149548   0.000000     0.260877   0.000000     0.184287   0.000000   )
 (  0.149218   0.000000     0.260243   0.000000     0.183719   0.000000   )
 ( -0.260777   0.000000     0.149479   0.000000     0.184205   0.000000   )
 ( -0.260361   0.000000     0.149292   0.000000     0.183850   0.000000   )
 (  0.260362   0.000000    -0.149308   0.000000     0.183844   0.000000   )
 (  0.260767   0.000000    -0.149459   0.000000     0.184203   0.000000   )
 ( -0.149405   0.000000    -0.260514   0.000000     0.183972   0.000000   )
     freq (   30) =      28.467302 [THz] =     949.566977 [cm-1]
 (  0.000000   0.000000    -0.000000   0.000000     0.008805   0.000000   )
 (  0.000000   0.000000    -0.000001   0.000000    -0.008805   0.000000   )
 ( -0.000025   0.000000     0.000008   0.000000     0.071145   0.000000   )
 ( -0.000028   0.000000     0.000008   0.000000    -0.071151   0.000000   )
 ( -0.127952   0.000000    -0.256732   0.000000     0.203571   0.000000   )
 (  0.127994   0.000000     0.256812   0.000000     0.203630   0.000000   )
 ( -0.127877   0.000000    -0.256692   0.000000    -0.203400   0.000000   )
 (  0.256895   0.000000    -0.128045   0.000000    -0.203729   0.000000   )
 ( -0.256630   0.000000     0.127841   0.000000     0.203337   0.000000   )
 (  0.256907   0.000000    -0.128001   0.000000     0.203594   0.000000   )
 ( -0.256641   0.000000     0.127902   0.000000    -0.203492   0.000000   )
 (  0.127905   0.000000     0.256752   0.000000    -0.203440   0.000000   )
     freq (   31) =      28.583247 [THz] =     953.434482 [cm-1]
 ( -0.000202   0.000000     0.002656   0.000000    -0.000000   0.000000   )
 (  0.000249   0.000000    -0.002755   0.000000     0.000000   0.000000   )
 (  0.052257   0.000000    -0.032405   0.000000    -0.000002   0.000000   )
 ( -0.057240   0.000000     0.033854   0.000000     0.000002   0.000000   )
 ( -0.026168   0.000000    -0.003694   0.000000    -0.001510   0.000000   )
 ( -0.026171   0.000000    -0.003725   0.000000     0.001470   0.000000   )
 (  0.029191   0.000000     0.010856   0.000000     0.003020   0.000000   )
 ( -0.314236   0.000000     0.220476   0.000000     0.284818   0.000000   )
 (  0.339579   0.000000    -0.234884   0.000000    -0.308664   0.000000   )
 (  0.339580   0.000000    -0.234877   0.000000     0.308676   0.000000   )
 ( -0.314201   0.000000     0.220466   0.000000    -0.284780   0.000000   )
 (  0.029178   0.000000     0.010852   0.000000    -0.003034   0.000000   )
     freq (   32) =      28.583283 [THz] =     953.435688 [cm-1]
 (  0.002756   0.000000     0.000249   0.000000    -0.000001   0.000000   )
 ( -0.002655   0.000000    -0.000201   0.000000    -0.000001   0.000000   )
 ( -0.033884   0.000000    -0.057283   0.000000    -0.000024   0.000000   )
 (  0.032375   0.000000     0.052210   0.000000    -0.000026   0.000000   )
 ( -0.220383   0.000000    -0.314040   0.000000     0.284599   0.000000   )
 ( -0.220249   0.000000    -0.313826   0.000000    -0.284476   0.000000   )
 (  0.235093   0.000000     0.339945   0.000000     0.308965   0.000000   )
 (  0.003616   0.000000    -0.026117   0.000000     0.001548   0.000000   )
 ( -0.010969   0.000000     0.029241   0.000000     0.003094   0.000000   )
 ( -0.010733   0.000000     0.029096   0.000000    -0.002907   0.000000   )
 (  0.003830   0.000000    -0.026253   0.000000    -0.001373   0.000000   )
 (  0.234965   0.000000     0.339745   0.000000    -0.308849   0.000000   )
     freq (   33) =      28.621785 [THz] =     954.719966 [cm-1]
 (  0.000530   0.000000     0.001286   0.000000     0.000002   0.000000   )
 (  0.000726   0.000000     0.001172   0.000000    -0.000002   0.000000   )
 (  0.023076   0.000000    -0.062401   0.000000     0.000018   0.000000   )
 (  0.018453   0.000000    -0.064534   0.000000    -0.000016   0.000000   )
 (  0.138120   0.000000     0.228729   0.000000    -0.227502   0.000000   )
 (  0.138183   0.000000     0.228866   0.000000     0.227608   0.000000   )
 (  0.124371   0.000000     0.207448   0.000000     0.208192   0.000000   )
 ( -0.268593   0.000000     0.141501   0.000000     0.226753   0.000000   )
 ( -0.253616   0.000000     0.129669   0.000000     0.213720   0.000000   )
 ( -0.253529   0.000000     0.129630   0.000000    -0.213664   0.000000   )
 ( -0.268698   0.000000     0.141551   0.000000    -0.226825   0.000000   )
 (  0.124444   0.000000     0.207599   0.000000    -0.208307   0.000000   )
     freq (   34) =      28.621828 [THz] =     954.721408 [cm-1]
 ( -0.001170   0.000000     0.000725   0.000000     0.000004   0.000000   )
 ( -0.001288   0.000000     0.000531   0.000000    -0.000004   0.000000   )
 (  0.064486   0.000000     0.018432   0.000000     0.000024   0.000000   )
 (  0.062451   0.000000     0.023092   0.000000    -0.000025   0.000000   )
 ( -0.141697   0.000000    -0.268933   0.000000     0.227035   0.000000   )
 ( -0.141612   0.000000    -0.268757   0.000000    -0.226908   0.000000   )
 ( -0.129556   0.000000    -0.253449   0.000000    -0.213561   0.000000   )
 ( -0.228555   0.000000     0.137978   0.000000     0.227351   0.000000   )
 ( -0.207788   0.000000     0.124588   0.000000     0.208475   0.000000   )
 ( -0.207617   0.000000     0.124498   0.000000    -0.208340   0.000000   )
 ( -0.228719   0.000000     0.138064   0.000000    -0.227476   0.000000   )
 ( -0.129473   0.000000    -0.253272   0.000000     0.213429   0.000000   )
     freq (   35) =      33.528497 [THz] =    1118.390286 [cm-1]
 (  0.000000   0.000000     0.000000   0.000000     0.000003   0.000000   )
 (  0.000000   0.000000     0.000000   0.000000     0.000004   0.000000   )
 (  0.000001   0.000000    -0.000002   0.000000    -0.000046   0.000000   )
 (  0.000001   0.000000    -0.000003   0.000000    -0.000039   0.000000   )
 (  0.126172   0.000000     0.253664   0.000000    -0.210728   0.000000   )
 ( -0.126146   0.000000    -0.253647   0.000000    -0.210711   0.000000   )
 (  0.126548   0.000000     0.254360   0.000000     0.211324   0.000000   )
 (  0.253894   0.000000    -0.126326   0.000000    -0.211094   0.000000   )
 ( -0.254036   0.000000     0.126358   0.000000     0.210935   0.000000   )
 (  0.254007   0.000000    -0.126349   0.000000     0.210917   0.000000   )
 ( -0.253925   0.000000     0.126336   0.000000    -0.211113   0.000000   )
 ( -0.126526   0.000000    -0.254353   0.000000     0.211310   0.000000   )
     freq (   36) =      33.594964 [THz] =    1120.607373 [cm-1]
 (  0.000000   0.000000    -0.000000   0.000000    -0.000014   0.000000   )
 (  0.000000   0.000000     0.000000   0.000000     0.000014   0.000000   )
 (  0.000001   0.000000    -0.000002   0.000000    -0.000042   0.000000   )
 ( -0.000001   0.000000     0.000003   0.000000     0.000040   0.000000   )
 ( -0.121514   0.000000    -0.201953   0.000000     0.263859   0.000000   )
 (  0.121474   0.000000     0.201931   0.000000     0.263839   0.000000   )
 (  0.121375   0.000000     0.201737   0.000000     0.263507   0.000000   )
 (  0.201538   0.000000    -0.121299   0.000000    -0.263524   0.000000   )
 (  0.202096   0.000000    -0.121543   0.000000    -0.263812   0.000000   )
 ( -0.202072   0.000000     0.121532   0.000000    -0.263791   0.000000   )
 ( -0.201563   0.000000     0.121311   0.000000    -0.263545   0.000000   )
 ( -0.121338   0.000000    -0.201721   0.000000     0.263490   0.000000   )
 **************************************************************************
