
     Program PHONON v.6.7MaX starts on  5Jul2026 at  3:28:37 

     This program is part of the open-source Quantum ESPRESSO suite
     for quantum simulation of materials; please cite
         "P. Giannozzi et al., J. Phys.:Condens. Matter 21 395502 (2009);
         "P. Giannozzi et al., J. Phys.:Condens. Matter 29 465901 (2017);
          URL http://www.quantum-espresso.org", 
     in publications or presentations arising from this work. More details at
     http://www.quantum-espresso.org/quote

     Parallel version (MPI), running on     8 processors

     MPI processes distributed on     1 nodes
     R & G space division:  proc/nbgrp/npool/nimage =       8
     Waiting for input...
     Reading input from standard input
      Title line not specified: using 'default'.

     Reading xml data from directory:

     ./out/BaO4W.save/
     file Ba.pbe-spn-kjpaw_psl.1.0.0.UPF: wavefunction(s)  5S 6S renormalized
     file O.pbe-n-kjpaw_psl.0.1.UPF: wavefunction(s)  2P renormalized

     IMPORTANT: XC functional enforced from input :
     Exchange-correlation= PBE
                           (   1   4   3   4   0   0   0)
     Any further DFT definition will be discarded
     Please, verify this is what you really want


     Parallelization info
     --------------------
     sticks:   dense  smooth     PW     G-vecs:    dense   smooth      PW
     Min         869     435    134                30645    10829    1872
     Max         870     436    135                30646    10830    1873
     Sum        6955    3483   1077               245163    86639   14981


     negative rho (up, down):  1.309E-01 0.000E+00
     Reading collected, re-writing distributed wavefunctions
 end of file reached, closing tag not found
warning: file closed at level 1 with tag Root open
        1 /   1 q-points for this run, from  1 to  1:
       N       xq(1)         xq(2)         xq(3) 
       1   0.000000000   0.000000000   0.000000000


     Calculation of q =    0.0000000   0.0000000   0.0000000
     Message from routine ph_restart_set_filename :
     cannot open file for reading or writing
 end of file reached, closing tag not found
warning: file closed at level 1 with tag Root open
     Message from routine ph_restart_set_filename :
     cannot open file for reading or writing
     Message from routine ph_restart_set_filename :
     cannot open file for reading or writing
     Message from routine ph_restart_set_filename :
     cannot open file for reading or writing
     Message from routine ph_restart_set_filename :
     cannot open file for reading or writing
     Message from routine ph_restart_set_filename :
     cannot open file for reading or writing
     Message from routine ph_restart_set_filename :
     cannot open file for reading or writing
     Message from routine ph_restart_set_filename :
     cannot open file for reading or writing
     Message from routine ph_restart_set_filename :
     cannot open file for reading or writing
     Message from routine ph_restart_set_filename :
     cannot open file for reading or writing
     Message from routine ph_restart_set_filename :
     cannot open file for reading or writing
     Message from routine ph_restart_set_filename :
     cannot open file for reading or writing
     Message from routine ph_restart_set_filename :
     cannot open file for reading or writing
     Message from routine ph_restart_set_filename :
     cannot open file for reading or writing
     Message from routine ph_restart_set_filename :
     cannot open file for reading or writing
     Message from routine ph_restart_set_filename :
     cannot open file for reading or writing
     Message from routine ph_restart_set_filename :
     cannot open file for reading or writing
     Message from routine ph_restart_set_filename :
     cannot open file for reading or writing
     Message from routine ph_restart_set_filename :
     cannot open file for reading or writing
     Message from routine ph_restart_set_filename :
     cannot open file for reading or writing
     Message from routine ph_restart_set_filename :
     cannot open file for reading or writing
     Message from routine ph_restart_set_filename :
     cannot open file for reading or writing
     Message from routine ph_restart_set_filename :
     cannot open file for reading or writing
     Message from routine ph_restart_set_filename :
     cannot open file for reading or writing
     Message from routine ph_restart_set_filename :
     cannot open file for reading or writing
     Message from routine ph_restart_set_filename :
     cannot open file for reading or writing
     Message from routine ph_restart_set_filename :
     cannot open file for reading or writing
     Message from routine ph_restart_set_filename :
     cannot open file for reading or writing
     Message from routine ph_restart_set_filename :
     cannot open file for reading or writing
     Message from routine ph_restart_set_filename :
     cannot open file for reading or writing
     Message from routine ph_restart_set_filename :
     cannot open file for reading or writing
     Message from routine ph_restart_set_filename :
     cannot open file for reading or writing
     Message from routine ph_restart_set_filename :
     cannot open file for reading or writing
     Message from routine ph_restart_set_filename :
     cannot open file for reading or writing
     Message from routine ph_restart_set_filename :
     cannot open file for reading or writing
     Message from routine ph_restart_set_filename :
     cannot open file for reading or writing
     Message from routine ph_restart_set_filename :
     cannot open file for reading or writing

     Restart in Electric Field calculation

     default                                                                    

     bravais-lattice index     =            0
     lattice parameter (alat)  =      14.2199  a.u.
     unit-cell volume          =    1380.2297 (a.u.)^3
     number of atoms/cell      =           12
     number of atomic types    =            3
     kinetic-energy cut-off    =      60.0000  Ry
     charge density cut-off    =     480.0000  Ry
     convergence threshold     =      1.0E-10
     beta                      =       0.3000
     number of iterations used =            4
     Exchange-correlation= PBE
                           (   1   4   3   4   0   0   0)


     celldm(1)=   14.21992  celldm(2)=    0.00000  celldm(3)=    0.00000
     celldm(4)=    0.00000  celldm(5)=    0.00000  celldm(6)=    0.00000

     crystal axes: (cart. coord. in units of alat)
               a(1) = ( -0.3765  0.3765  0.8464 )  
               a(2) = (  0.3765 -0.3765  0.8464 )  
               a(3) = (  0.3765  0.3765 -0.8464 )  

     reciprocal axes: (cart. coord. in units 2 pi/alat)
               b(1) = (  0.0000  1.3279  0.5907 )  
               b(2) = (  1.3279 -0.0000  0.5907 )  
               b(3) = (  1.3279  1.3279  0.0000 )  


     Atoms inside the unit cell: 

     Cartesian axes

     site n.  atom      mass           positions (alat units)
        1     Ba 137.3270   tau(    1) = (    0.37653   -0.00000    0.42469  )
        2     Ba 137.3270   tau(    2) = (    0.00000    0.00000    0.84790  )
        3     W  183.8400   tau(    3) = (    0.00000    0.37653    0.42459  )
        4     W  183.8400   tau(    4) = (    0.00000    0.00000    0.00137  )
        5     O   15.9990   tau(    5) = (    0.09451    0.17377   -0.13159  )
        6     O   15.9990   tau(    6) = (    0.28203    0.20277    0.71484  )
        7     O   15.9990   tau(    7) = (    0.47102    0.17369   -0.28875  )
        8     O   15.9990   tau(    8) = (    0.17377    0.28203    0.29162  )
        9     O   15.9990   tau(    9) = (    0.57938    0.09449    0.13447  )
       10     O   15.9990   tau(   10) = (   -0.20285    0.28204    0.98090  )
       11     O   15.9990   tau(   11) = (    0.20277    0.09451    1.13805  )
       12     O   15.9990   tau(   12) = (   -0.09449    0.20285    0.55768  )

     Computing dynamical matrix for 
                    q = (   0.0000000   0.0000000   0.0000000 )

      2 Sym.Ops. (with q -> -q+G )


     G cutoff = 2458.5318  (  30645 G-vectors)     FFT grid: (100,100,100)
     G cutoff = 1229.2659  (  10830 G-vectors)  smooth grid: ( 72, 72, 72)
     number of k points=    36
                       cart. coord. in units 2pi/alat
        k(    1) = (   0.0000000   0.0000000   0.0000000), wk =   0.0312500
        k(    2) = (   0.3319752   0.3319752   0.0000000), wk =   0.0625000
        k(    3) = (  -0.6639504  -0.6639504   0.0000000), wk =   0.0312500
        k(    4) = (   0.3319752  -0.0000000   0.1476790), wk =   0.0625000
        k(    5) = (   0.6639504   0.3319752   0.1476790), wk =   0.0625000
        k(    6) = (  -0.3319752  -0.6639504   0.1476790), wk =   0.0625000
        k(    7) = (  -0.0000000  -0.3319752   0.1476790), wk =   0.0625000
        k(    8) = (  -0.6639504   0.0000000  -0.2953581), wk =   0.0312500
        k(    9) = (  -0.3319752   0.3319752  -0.2953581), wk =   0.0625000
        k(   10) = (  -1.3279008  -0.6639504  -0.2953581), wk =   0.0312500
        k(   11) = (   0.0000000   0.3319752   0.1476790), wk =   0.0625000
        k(   12) = (   0.3319752   0.6639504   0.1476790), wk =   0.0625000
        k(   13) = (  -0.6639504  -0.3319752   0.1476790), wk =   0.0625000
        k(   14) = (  -0.3319752   0.0000000   0.1476790), wk =   0.0625000
        k(   15) = (   0.3319752   0.3319752   0.2953581), wk =   0.0625000
        k(   16) = (   0.6639504   0.6639504   0.2953581), wk =   0.0625000
        k(   17) = (  -0.3319752  -0.3319752   0.2953581), wk =   0.0625000
        k(   18) = (   0.0000000   0.0000000   0.2953581), wk =   0.0625000
        k(   19) = (  -0.6639504   0.3319752  -0.1476790), wk =   0.0625000
        k(   20) = (  -0.3319752   0.6639504  -0.1476790), wk =   0.0625000
        k(   21) = (  -1.3279008  -0.3319752  -0.1476790), wk =   0.0625000
        k(   22) = (  -0.9959256   0.0000000  -0.1476790), wk =   0.0625000
        k(   23) = (  -0.3319752   0.3319752   0.0000000), wk =   0.0625000
        k(   24) = (   0.0000000   0.6639504   0.0000000), wk =   0.0625000
        k(   25) = (  -0.9959256  -0.3319752   0.0000000), wk =   0.0625000
        k(   26) = (  -0.6639504   0.0000000   0.0000000), wk =   0.0625000
        k(   27) = (  -0.0000000  -0.6639504  -0.2953581), wk =   0.0312500
        k(   28) = (   0.3319752  -0.3319752  -0.2953581), wk =   0.0625000
        k(   29) = (  -0.6639504  -1.3279008  -0.2953581), wk =   0.0312500
        k(   30) = (   0.3319752  -0.6639504  -0.1476790), wk =   0.0625000
        k(   31) = (   0.6639504  -0.3319752  -0.1476790), wk =   0.0625000
        k(   32) = (  -0.3319752  -1.3279008  -0.1476790), wk =   0.0625000
        k(   33) = (  -0.0000000  -0.9959256  -0.1476790), wk =   0.0625000
        k(   34) = (  -0.6639504  -0.6639504  -0.5907162), wk =   0.0312500
        k(   35) = (  -0.3319752  -0.3319752  -0.5907162), wk =   0.0625000
        k(   36) = (  -1.3279008  -1.3279008  -0.5907162), wk =   0.0312500

     PseudoPot. # 1 for Ba read from file:
     /data/pseudopotentials/Ba.pbe-spn-kjpaw_psl.1.0.0.UPF
     MD5 check sum: 7cfe25f1fe7574a4710541d5a11d6531
     Pseudo is Projector augmented-wave + core cor, Zval = 10.0
     Generated using &quot;atomic&quot; code by A. Dal Corso  v.6.2.2
     Shape of augmentation charge: PSQ
     Using radial grid of 1251 points,  7 beta functions with: 
                l(1) =   0
                l(2) =   0
                l(3) =   0
                l(4) =   1
                l(5) =   1
                l(6) =   2
                l(7) =   2
     Q(r) pseudized with 0 coefficients 


     PseudoPot. # 2 for W  read from file:
     /data/pseudopotentials/w_pbe_v1.2.uspp.F.UPF
     MD5 check sum: 9c083fa34c2a2ea0f02f1f893e16e1c8
     Pseudo is Ultrasoft + core correction, Zval = 14.0
     Generated by new atomic code, or converted to UPF format
     Using radial grid of  923 points,  8 beta functions with: 
                l(1) =   0
                l(2) =   0
                l(3) =   0
                l(4) =   1
                l(5) =   1
                l(6) =   2
                l(7) =   2
                l(8) =   3
     Q(r) pseudized with  6 coefficients,  rinner =    1.350   1.350   1.350
                                                       1.350   1.350   1.350
                                                       1.350

     PseudoPot. # 3 for O  read from file:
     /data/pseudopotentials/O.pbe-n-kjpaw_psl.0.1.UPF
     MD5 check sum: 833c495a5d0f9b75bf046115549bffff
     Pseudo is Projector augmented-wave + core cor, Zval =  6.0
     Generated using &quot;atomic&quot; code by A. Dal Corso  v.6.3
     Shape of augmentation charge: BESSEL
     Using radial grid of 1095 points,  4 beta functions with: 
                l(1) =   0
                l(2) =   0
                l(3) =   1
                l(4) =   1
     Q(r) pseudized with 0 coefficients 


     Mode symmetry, C_1 (1)     point group:


     Electric field:
     Dielectric constant
     Born effective charges as d Force / d E


     Atomic displacements:
     There are   36 irreducible representations

     Representation     1      1 modes -  To be done

     Representation     2      1 modes -  To be done

     Representation     3      1 modes -  To be done

     Representation     4      1 modes -  To be done

     Representation     5      1 modes -  To be done

     Representation     6      1 modes -  To be done

     Representation     7      1 modes -  To be done

     Representation     8      1 modes -  To be done

     Representation     9      1 modes -  To be done

     Representation    10      1 modes -  To be done

     Representation    11      1 modes -  To be done

     Representation    12      1 modes -  To be done

     Representation    13      1 modes -  To be done

     Representation    14      1 modes -  To be done

     Representation    15      1 modes -  To be done

     Representation    16      1 modes -  To be done

     Representation    17      1 modes -  To be done

     Representation    18      1 modes -  To be done

     Representation    19      1 modes -  To be done

     Representation    20      1 modes -  To be done

     Representation    21      1 modes -  To be done

     Representation    22      1 modes -  To be done

     Representation    23      1 modes -  To be done

     Representation    24      1 modes -  To be done

     Representation    25      1 modes -  To be done

     Representation    26      1 modes -  To be done

     Representation    27      1 modes -  To be done

     Representation    28      1 modes -  To be done

     Representation    29      1 modes -  To be done

     Representation    30      1 modes -  To be done

     Representation    31      1 modes -  To be done

     Representation    32      1 modes -  To be done

     Representation    33      1 modes -  To be done

     Representation    34      1 modes -  To be done

     Representation    35      1 modes -  To be done

     Representation    36      1 modes -  To be done


     PHONON       :   3m56.43s CPU   4m 2.93s WALL


     Electric Fields Calculation

      iter #  61 total cpu time :  1209.8 secs   av.it.:  21.2
      thresh= 2.723E-04 alpha_mix =  0.300 |ddv_scf|^2 =  2.901E-07

      iter #  62 total cpu time :  2239.0 secs   av.it.:  22.7
      thresh= 5.387E-05 alpha_mix =  0.300 |ddv_scf|^2 =  1.888E-07

      iter #  63 total cpu time :  3286.2 secs   av.it.:  23.3
      thresh= 4.345E-05 alpha_mix =  0.300 |ddv_scf|^2 =  4.130E-07

      iter #  64 total cpu time :  4413.4 secs   av.it.:  25.1
      thresh= 6.426E-05 alpha_mix =  0.300 |ddv_scf|^2 =  4.636E-06

      iter #  65 total cpu time :  5453.8 secs   av.it.:  23.1
      thresh= 2.153E-04 alpha_mix =  0.300 |ddv_scf|^2 =  2.047E-08

      iter #  66 total cpu time :  6500.7 secs   av.it.:  22.8
      thresh= 1.431E-05 alpha_mix =  0.300 |ddv_scf|^2 =  5.721E-09

      iter #  67 total cpu time :  7551.8 secs   av.it.:  23.1
      thresh= 7.563E-06 alpha_mix =  0.300 |ddv_scf|^2 =  9.757E-11

     End of electric fields calculation

          Dielectric constant in cartesian axis 

          (       3.399113213      -0.000284340      -0.000027300 )
          (       0.000225210       3.399132911       0.000024140 )
          (      -0.000013427       0.000028989       3.406280691 )

          Effective charges (d Force / dE) in cartesian axis

           atom      1   Ba 
      Ex  (        1.91873        0.06372        0.00796 )
      Ey  (       -0.07027        1.93673       -0.00101 )
      Ez  (        0.00031        0.00883        1.76015 )
           atom      2   Ba 
      Ex  (        1.92873        0.08244       -0.00464 )
      Ey  (       -0.06333        1.92445       -0.00084 )
      Ez  (       -0.00339        0.00819        1.76742 )
           atom      3   W  
      Ex  (        3.98151       -0.09583       -0.00256 )
      Ey  (        0.10005        3.98222        0.00396 )
      Ez  (       -0.00018       -0.00024        3.91029 )
           atom      4   W  
      Ex  (        3.98242       -0.10006        0.00265 )
      Ey  (        0.09634        3.98135       -0.00414 )
      Ez  (        0.00024       -0.00014        3.91705 )
           atom      5   O  
      Ex  (       -1.34807       -0.70232        0.43778 )
      Ey  (       -0.71540       -2.08236        0.86738 )
      Ez  (        0.37523        0.91829       -1.74544 )
           atom      6   O  
      Ex  (       -1.34810       -0.70200       -0.43683 )
      Ey  (       -0.71557       -2.08279       -0.86875 )
      Ez  (       -0.37524       -0.91842       -1.74547 )
           atom      7   O  
      Ex  (       -1.34804       -0.70193       -0.43899 )
      Ey  (       -0.71457       -2.08063       -0.86691 )
      Ez  (       -0.37651       -0.91987       -1.74813 )
           atom      8   O  
      Ex  (       -2.08245        0.71551        0.86767 )
      Ey  (        0.70210       -1.34803       -0.43678 )
      Ez  (        0.91872       -0.37529       -1.74663 )
           atom      9   O  
      Ex  (       -2.08088        0.71461        0.86791 )
      Ey  (        0.70222       -1.34810       -0.43938 )
      Ez  (        0.91946       -0.37644       -1.74691 )
           atom     10   O  
      Ex  (       -2.08058        0.71461       -0.86700 )
      Ey  (        0.70172       -1.34795        0.43796 )
      Ez  (       -0.91937        0.37637       -1.74687 )
           atom     11   O  
      Ex  (       -2.08262        0.71561       -0.86841 )
      Ey  (        0.70247       -1.34818        0.43811 )
      Ez  (       -0.91869        0.37526       -1.74654 )
           atom     12   O  
      Ex  (       -1.34791       -0.70166        0.43812 )
      Ey  (       -0.71469       -2.08089        0.86813 )
      Ez  (        0.37643        0.91974       -1.74799 )


     Representation #   1 mode #   1

     Self-consistent Calculation

      iter #   1 total cpu time : 10498.6 secs   av.it.:   7.8
      thresh= 1.000E-02 alpha_mix =  0.300 |ddv_scf|^2 =  1.609E-07

      iter #   2 total cpu time : 10792.3 secs   av.it.:  18.7
      thresh= 4.012E-05 alpha_mix =  0.300 |ddv_scf|^2 =  1.239E-08

      iter #   3 total cpu time : 11099.7 secs   av.it.:  19.7
      thresh= 1.113E-05 alpha_mix =  0.300 |ddv_scf|^2 =  5.307E-09

      iter #   4 total cpu time : 11388.7 secs   av.it.:  18.6
      thresh= 7.285E-06 alpha_mix =  0.300 |ddv_scf|^2 =  3.696E-10

      iter #   5 total cpu time : 11691.6 secs   av.it.:  19.3
      thresh= 1.922E-06 alpha_mix =  0.300 |ddv_scf|^2 =  1.389E-10

      iter #   6 total cpu time : 11985.1 secs   av.it.:  18.8
      thresh= 1.179E-06 alpha_mix =  0.300 |ddv_scf|^2 =  4.606E-11

     End of self-consistent calculation

     Convergence has been achieved 


     Representation #   2 mode #   2

     Self-consistent Calculation

      iter #   1 total cpu time : 12132.6 secs   av.it.:   7.8
      thresh= 1.000E-02 alpha_mix =  0.300 |ddv_scf|^2 =  1.610E-07

      iter #   2 total cpu time : 12423.6 secs   av.it.:  18.8
      thresh= 4.012E-05 alpha_mix =  0.300 |ddv_scf|^2 =  1.239E-08

      iter #   3 total cpu time : 12724.3 secs   av.it.:  19.7
      thresh= 1.113E-05 alpha_mix =  0.300 |ddv_scf|^2 =  5.307E-09

      iter #   4 total cpu time : 13005.7 secs   av.it.:  18.6
      thresh= 7.285E-06 alpha_mix =  0.300 |ddv_scf|^2 =  3.696E-10

      iter #   5 total cpu time : 13299.7 secs   av.it.:  19.3
      thresh= 1.923E-06 alpha_mix =  0.300 |ddv_scf|^2 =  1.389E-10

      iter #   6 total cpu time : 13584.7 secs   av.it.:  18.8
      thresh= 1.178E-06 alpha_mix =  0.300 |ddv_scf|^2 =  4.611E-11

     End of self-consistent calculation

     Convergence has been achieved 


     Representation #   3 mode #   3

     Self-consistent Calculation

      iter #   1 total cpu time : 13729.4 secs   av.it.:   7.8
      thresh= 1.000E-02 alpha_mix =  0.300 |ddv_scf|^2 =  3.756E-07

      iter #   2 total cpu time : 14007.9 secs   av.it.:  18.2
      thresh= 6.129E-05 alpha_mix =  0.300 |ddv_scf|^2 =  3.583E-08

      iter #   3 total cpu time : 14295.1 secs   av.it.:  18.8
      thresh= 1.893E-05 alpha_mix =  0.300 |ddv_scf|^2 =  1.067E-08

      iter #   4 total cpu time : 14569.7 secs   av.it.:  17.8
      thresh= 1.033E-05 alpha_mix =  0.300 |ddv_scf|^2 =  3.996E-10

      iter #   5 total cpu time : 14850.8 secs   av.it.:  18.4
      thresh= 1.999E-06 alpha_mix =  0.300 |ddv_scf|^2 =  2.225E-10

      iter #   6 total cpu time : 15144.3 secs   av.it.:  19.1
      thresh= 1.492E-06 alpha_mix =  0.300 |ddv_scf|^2 =  8.599E-11

     End of self-consistent calculation

     Convergence has been achieved 


     Representation #   4 mode #   4

     Self-consistent Calculation

      iter #   1 total cpu time : 15288.0 secs   av.it.:   7.8
      thresh= 1.000E-02 alpha_mix =  0.300 |ddv_scf|^2 =  1.610E-07

      iter #   2 total cpu time : 15571.8 secs   av.it.:  18.8
      thresh= 4.012E-05 alpha_mix =  0.300 |ddv_scf|^2 =  1.239E-08

      iter #   3 total cpu time : 15867.9 secs   av.it.:  19.7
      thresh= 1.113E-05 alpha_mix =  0.300 |ddv_scf|^2 =  5.307E-09

      iter #   4 total cpu time : 16151.3 secs   av.it.:  18.6
      thresh= 7.285E-06 alpha_mix =  0.300 |ddv_scf|^2 =  3.696E-10

      iter #   5 total cpu time : 16445.6 secs   av.it.:  19.3
      thresh= 1.923E-06 alpha_mix =  0.300 |ddv_scf|^2 =  1.389E-10

      iter #   6 total cpu time : 16732.4 secs   av.it.:  18.8
      thresh= 1.178E-06 alpha_mix =  0.300 |ddv_scf|^2 =  4.611E-11

     End of self-consistent calculation

     Convergence has been achieved 


     Representation #   5 mode #   5

     Self-consistent Calculation

      iter #   1 total cpu time : 16876.4 secs   av.it.:   7.8
      thresh= 1.000E-02 alpha_mix =  0.300 |ddv_scf|^2 =  1.609E-07

      iter #   2 total cpu time : 17158.4 secs   av.it.:  18.7
      thresh= 4.012E-05 alpha_mix =  0.300 |ddv_scf|^2 =  1.239E-08

      iter #   3 total cpu time : 17464.4 secs   av.it.:  19.7
      thresh= 1.113E-05 alpha_mix =  0.300 |ddv_scf|^2 =  5.307E-09

      iter #   4 total cpu time : 17753.0 secs   av.it.:  18.6
      thresh= 7.285E-06 alpha_mix =  0.300 |ddv_scf|^2 =  3.696E-10

      iter #   5 total cpu time : 18055.1 secs   av.it.:  19.3
      thresh= 1.922E-06 alpha_mix =  0.300 |ddv_scf|^2 =  1.389E-10

      iter #   6 total cpu time : 18349.0 secs   av.it.:  18.8
      thresh= 1.179E-06 alpha_mix =  0.300 |ddv_scf|^2 =  4.606E-11

     End of self-consistent calculation

     Convergence has been achieved 


     Representation #   6 mode #   6

     Self-consistent Calculation

      iter #   1 total cpu time : 18497.7 secs   av.it.:   7.8
      thresh= 1.000E-02 alpha_mix =  0.300 |ddv_scf|^2 =  3.756E-07

      iter #   2 total cpu time : 18783.5 secs   av.it.:  18.2
      thresh= 6.129E-05 alpha_mix =  0.300 |ddv_scf|^2 =  3.583E-08

      iter #   3 total cpu time : 19079.8 secs   av.it.:  18.8
      thresh= 1.893E-05 alpha_mix =  0.300 |ddv_scf|^2 =  1.067E-08

      iter #   4 total cpu time : 19362.3 secs   av.it.:  17.8
      thresh= 1.033E-05 alpha_mix =  0.300 |ddv_scf|^2 =  3.996E-10

      iter #   5 total cpu time : 19650.7 secs   av.it.:  18.4
      thresh= 1.999E-06 alpha_mix =  0.300 |ddv_scf|^2 =  2.225E-10

      iter #   6 total cpu time : 19948.5 secs   av.it.:  19.1
      thresh= 1.492E-06 alpha_mix =  0.300 |ddv_scf|^2 =  8.599E-11

     End of self-consistent calculation

     Convergence has been achieved 


     Representation #   7 mode #   7

     Self-consistent Calculation

      iter #   1 total cpu time : 20132.3 secs   av.it.:   9.9
      thresh= 1.000E-02 alpha_mix =  0.300 |ddv_scf|^2 =  7.703E-07

      iter #   2 total cpu time : 20433.4 secs   av.it.:  19.2
      thresh= 8.776E-05 alpha_mix =  0.300 |ddv_scf|^2 =  6.006E-08

      iter #   3 total cpu time : 20743.6 secs   av.it.:  19.8
      thresh= 2.451E-05 alpha_mix =  0.300 |ddv_scf|^2 =  2.129E-08

      iter #   4 total cpu time : 21042.6 secs   av.it.:  18.8
      thresh= 1.459E-05 alpha_mix =  0.300 |ddv_scf|^2 =  4.311E-10

      iter #   5 total cpu time : 21350.7 secs   av.it.:  19.8
      thresh= 2.076E-06 alpha_mix =  0.300 |ddv_scf|^2 =  6.287E-11

     End of self-consistent calculation

     Convergence has been achieved 


     Representation #   8 mode #   8

     Self-consistent Calculation

      iter #   1 total cpu time : 21532.6 secs   av.it.:   9.9
      thresh= 1.000E-02 alpha_mix =  0.300 |ddv_scf|^2 =  7.702E-07

      iter #   2 total cpu time : 21831.5 secs   av.it.:  19.2
      thresh= 8.776E-05 alpha_mix =  0.300 |ddv_scf|^2 =  6.007E-08

      iter #   3 total cpu time : 22138.0 secs   av.it.:  19.8
      thresh= 2.451E-05 alpha_mix =  0.300 |ddv_scf|^2 =  2.130E-08

      iter #   4 total cpu time : 22435.1 secs   av.it.:  18.8
      thresh= 1.459E-05 alpha_mix =  0.300 |ddv_scf|^2 =  4.309E-10

      iter #   5 total cpu time : 22743.7 secs   av.it.:  19.8
      thresh= 2.076E-06 alpha_mix =  0.300 |ddv_scf|^2 =  6.289E-11

     End of self-consistent calculation

     Convergence has been achieved 


     Representation #   9 mode #   9

     Self-consistent Calculation

      iter #   1 total cpu time : 22927.2 secs   av.it.:   9.9
      thresh= 1.000E-02 alpha_mix =  0.300 |ddv_scf|^2 =  1.259E-06

      iter #   2 total cpu time : 23213.8 secs   av.it.:  18.8
      thresh= 1.122E-04 alpha_mix =  0.300 |ddv_scf|^2 =  1.544E-07

      iter #   3 total cpu time : 23475.0 secs   av.it.:  18.9
      thresh= 3.929E-05 alpha_mix =  0.300 |ddv_scf|^2 =  3.122E-08

      iter #   4 total cpu time : 23732.6 secs   av.it.:  18.8
      thresh= 1.767E-05 alpha_mix =  0.300 |ddv_scf|^2 =  9.619E-10

      iter #   5 total cpu time : 23992.8 secs   av.it.:  18.9
      thresh= 3.102E-06 alpha_mix =  0.300 |ddv_scf|^2 =  2.464E-10

      iter #   6 total cpu time : 24266.0 secs   av.it.:  19.9
      thresh= 1.570E-06 alpha_mix =  0.300 |ddv_scf|^2 =  1.321E-11

     End of self-consistent calculation

     Convergence has been achieved 


     Representation #  10 mode #  10

     Self-consistent Calculation

      iter #   1 total cpu time : 24425.6 secs   av.it.:   9.9
      thresh= 1.000E-02 alpha_mix =  0.300 |ddv_scf|^2 =  7.702E-07

      iter #   2 total cpu time : 24688.6 secs   av.it.:  19.2
      thresh= 8.776E-05 alpha_mix =  0.300 |ddv_scf|^2 =  6.007E-08

      iter #   3 total cpu time : 24958.9 secs   av.it.:  19.8
      thresh= 2.451E-05 alpha_mix =  0.300 |ddv_scf|^2 =  2.130E-08

      iter #   4 total cpu time : 25218.8 secs   av.it.:  18.8
      thresh= 1.459E-05 alpha_mix =  0.300 |ddv_scf|^2 =  4.309E-10

      iter #   5 total cpu time : 25492.3 secs   av.it.:  19.8
      thresh= 2.076E-06 alpha_mix =  0.300 |ddv_scf|^2 =  6.289E-11

     End of self-consistent calculation

     Convergence has been achieved 


     Representation #  11 mode #  11

     Self-consistent Calculation

      iter #   1 total cpu time : 25654.3 secs   av.it.:   9.9
      thresh= 1.000E-02 alpha_mix =  0.300 |ddv_scf|^2 =  7.703E-07

      iter #   2 total cpu time : 25921.8 secs   av.it.:  19.2
      thresh= 8.777E-05 alpha_mix =  0.300 |ddv_scf|^2 =  6.006E-08

      iter #   3 total cpu time : 26084.8 secs   av.it.:  19.8
      thresh= 2.451E-05 alpha_mix =  0.300 |ddv_scf|^2 =  2.129E-08

      iter #   4 total cpu time : 26214.2 secs   av.it.:  18.8
      thresh= 1.459E-05 alpha_mix =  0.300 |ddv_scf|^2 =  4.311E-10

      iter #   5 total cpu time : 26349.1 secs   av.it.:  19.8
      thresh= 2.076E-06 alpha_mix =  0.300 |ddv_scf|^2 =  6.287E-11

     End of self-consistent calculation

     Convergence has been achieved 


     Representation #  12 mode #  12

     Self-consistent Calculation

      iter #   1 total cpu time : 26429.3 secs   av.it.:   9.9
      thresh= 1.000E-02 alpha_mix =  0.300 |ddv_scf|^2 =  1.259E-06

      iter #   2 total cpu time : 26558.1 secs   av.it.:  18.8
      thresh= 1.122E-04 alpha_mix =  0.300 |ddv_scf|^2 =  1.544E-07

      iter #   3 total cpu time : 26687.7 secs   av.it.:  18.9
      thresh= 3.929E-05 alpha_mix =  0.300 |ddv_scf|^2 =  3.122E-08

      iter #   4 total cpu time : 26815.5 secs   av.it.:  18.8
      thresh= 1.767E-05 alpha_mix =  0.300 |ddv_scf|^2 =  9.619E-10

      iter #   5 total cpu time : 26945.0 secs   av.it.:  18.9
      thresh= 3.102E-06 alpha_mix =  0.300 |ddv_scf|^2 =  2.464E-10

      iter #   6 total cpu time : 27080.4 secs   av.it.:  19.9
      thresh= 1.570E-06 alpha_mix =  0.300 |ddv_scf|^2 =  1.321E-11

     End of self-consistent calculation

     Convergence has been achieved 


     Representation #  13 mode #  13

     Self-consistent Calculation

      iter #   1 total cpu time : 27149.1 secs   av.it.:   8.0
      thresh= 1.000E-02 alpha_mix =  0.300 |ddv_scf|^2 =  1.651E-07

      iter #   2 total cpu time : 27281.3 secs   av.it.:  18.9
      thresh= 4.063E-05 alpha_mix =  0.300 |ddv_scf|^2 =  2.493E-08

      iter #   3 total cpu time : 27425.3 secs   av.it.:  20.0
      thresh= 1.579E-05 alpha_mix =  0.300 |ddv_scf|^2 =  4.856E-09

      iter #   4 total cpu time : 27570.3 secs   av.it.:  20.0
      thresh= 6.968E-06 alpha_mix =  0.300 |ddv_scf|^2 =  2.561E-10

      iter #   5 total cpu time : 27716.0 secs   av.it.:  20.8
      thresh= 1.600E-06 alpha_mix =  0.300 |ddv_scf|^2 =  1.550E-11

     End of self-consistent calculation

     Convergence has been achieved 


     Representation #  14 mode #  14

     Self-consistent Calculation

      iter #   1 total cpu time : 27789.2 secs   av.it.:   8.9
      thresh= 1.000E-02 alpha_mix =  0.300 |ddv_scf|^2 =  2.152E-07

      iter #   2 total cpu time : 27921.4 secs   av.it.:  19.2
      thresh= 4.639E-05 alpha_mix =  0.300 |ddv_scf|^2 =  2.540E-08

      iter #   3 total cpu time : 28058.0 secs   av.it.:  19.9
      thresh= 1.594E-05 alpha_mix =  0.300 |ddv_scf|^2 =  6.948E-09

      iter #   4 total cpu time : 28194.3 secs   av.it.:  20.0
      thresh= 8.335E-06 alpha_mix =  0.300 |ddv_scf|^2 =  3.209E-10

      iter #   5 total cpu time : 28332.8 secs   av.it.:  20.8
      thresh= 1.791E-06 alpha_mix =  0.300 |ddv_scf|^2 =  4.725E-11

     End of self-consistent calculation

     Convergence has been achieved 


     Representation #  15 mode #  15

     Self-consistent Calculation

      iter #   1 total cpu time : 28403.3 secs   av.it.:   8.8
      thresh= 1.000E-02 alpha_mix =  0.300 |ddv_scf|^2 =  2.645E-07

      iter #   2 total cpu time : 28533.8 secs   av.it.:  19.0
      thresh= 5.143E-05 alpha_mix =  0.300 |ddv_scf|^2 =  2.832E-08

      iter #   3 total cpu time : 28670.4 secs   av.it.:  19.9
      thresh= 1.683E-05 alpha_mix =  0.300 |ddv_scf|^2 =  9.275E-09

      iter #   4 total cpu time : 28805.2 secs   av.it.:  19.9
      thresh= 9.631E-06 alpha_mix =  0.300 |ddv_scf|^2 =  5.985E-10

      iter #   5 total cpu time : 28941.7 secs   av.it.:  20.0
      thresh= 2.446E-06 alpha_mix =  0.300 |ddv_scf|^2 =  9.224E-11

     End of self-consistent calculation

     Convergence has been achieved 


     Representation #  16 mode #  16

     Self-consistent Calculation

      iter #   1 total cpu time : 29010.7 secs   av.it.:   8.0
      thresh= 1.000E-02 alpha_mix =  0.300 |ddv_scf|^2 =  1.651E-07

      iter #   2 total cpu time : 29141.1 secs   av.it.:  18.9
      thresh= 4.063E-05 alpha_mix =  0.300 |ddv_scf|^2 =  2.493E-08

      iter #   3 total cpu time : 29277.1 secs   av.it.:  20.0
      thresh= 1.579E-05 alpha_mix =  0.300 |ddv_scf|^2 =  4.855E-09

      iter #   4 total cpu time : 29413.9 secs   av.it.:  20.0
      thresh= 6.967E-06 alpha_mix =  0.300 |ddv_scf|^2 =  2.561E-10

      iter #   5 total cpu time : 29555.0 secs   av.it.:  20.8
      thresh= 1.600E-06 alpha_mix =  0.300 |ddv_scf|^2 =  1.549E-11

     End of self-consistent calculation

     Convergence has been achieved 


     Representation #  17 mode #  17

     Self-consistent Calculation

      iter #   1 total cpu time : 29626.2 secs   av.it.:   8.9
      thresh= 1.000E-02 alpha_mix =  0.300 |ddv_scf|^2 =  2.152E-07

      iter #   2 total cpu time : 29756.8 secs   av.it.:  19.2
      thresh= 4.639E-05 alpha_mix =  0.300 |ddv_scf|^2 =  2.540E-08

      iter #   3 total cpu time : 29891.7 secs   av.it.:  19.9
      thresh= 1.594E-05 alpha_mix =  0.300 |ddv_scf|^2 =  6.948E-09

      iter #   4 total cpu time : 30027.8 secs   av.it.:  20.0
      thresh= 8.335E-06 alpha_mix =  0.300 |ddv_scf|^2 =  3.209E-10

      iter #   5 total cpu time : 30167.3 secs   av.it.:  20.8
      thresh= 1.791E-06 alpha_mix =  0.300 |ddv_scf|^2 =  4.726E-11

     End of self-consistent calculation

     Convergence has been achieved 


     Representation #  18 mode #  18

     Self-consistent Calculation

      iter #   1 total cpu time : 30238.4 secs   av.it.:   8.8
      thresh= 1.000E-02 alpha_mix =  0.300 |ddv_scf|^2 =  2.645E-07

      iter #   2 total cpu time : 30368.1 secs   av.it.:  19.0
      thresh= 5.143E-05 alpha_mix =  0.300 |ddv_scf|^2 =  2.832E-08

      iter #   3 total cpu time : 30503.6 secs   av.it.:  19.9
      thresh= 1.683E-05 alpha_mix =  0.300 |ddv_scf|^2 =  9.275E-09

      iter #   4 total cpu time : 30638.2 secs   av.it.:  19.9
      thresh= 9.631E-06 alpha_mix =  0.300 |ddv_scf|^2 =  5.985E-10

      iter #   5 total cpu time : 30774.0 secs   av.it.:  20.0
      thresh= 2.446E-06 alpha_mix =  0.300 |ddv_scf|^2 =  9.224E-11

     End of self-consistent calculation

     Convergence has been achieved 


     Representation #  19 mode #  19

     Self-consistent Calculation

      iter #   1 total cpu time : 30843.1 secs   av.it.:   8.0
      thresh= 1.000E-02 alpha_mix =  0.300 |ddv_scf|^2 =  1.651E-07

      iter #   2 total cpu time : 30973.5 secs   av.it.:  19.0
      thresh= 4.063E-05 alpha_mix =  0.300 |ddv_scf|^2 =  2.493E-08

      iter #   3 total cpu time : 31109.6 secs   av.it.:  20.0
      thresh= 1.579E-05 alpha_mix =  0.300 |ddv_scf|^2 =  4.856E-09

      iter #   4 total cpu time : 31248.7 secs   av.it.:  20.0
      thresh= 6.969E-06 alpha_mix =  0.300 |ddv_scf|^2 =  2.561E-10

      iter #   5 total cpu time : 31397.0 secs   av.it.:  20.8
      thresh= 1.600E-06 alpha_mix =  0.300 |ddv_scf|^2 =  1.569E-11

     End of self-consistent calculation

     Convergence has been achieved 


     Representation #  20 mode #  20

     Self-consistent Calculation

      iter #   1 total cpu time : 31472.2 secs   av.it.:   8.9
      thresh= 1.000E-02 alpha_mix =  0.300 |ddv_scf|^2 =  2.151E-07

      iter #   2 total cpu time : 31609.3 secs   av.it.:  19.3
      thresh= 4.638E-05 alpha_mix =  0.300 |ddv_scf|^2 =  2.540E-08

      iter #   3 total cpu time : 31748.6 secs   av.it.:  19.9
      thresh= 1.594E-05 alpha_mix =  0.300 |ddv_scf|^2 =  6.949E-09

      iter #   4 total cpu time : 31886.4 secs   av.it.:  19.9
      thresh= 8.336E-06 alpha_mix =  0.300 |ddv_scf|^2 =  3.213E-10

      iter #   5 total cpu time : 32028.9 secs   av.it.:  20.8
      thresh= 1.793E-06 alpha_mix =  0.300 |ddv_scf|^2 =  4.766E-11

     End of self-consistent calculation

     Convergence has been achieved 


     Representation #  21 mode #  21

     Self-consistent Calculation

      iter #   1 total cpu time : 32101.0 secs   av.it.:   8.8
      thresh= 1.000E-02 alpha_mix =  0.300 |ddv_scf|^2 =  2.647E-07

      iter #   2 total cpu time : 32233.0 secs   av.it.:  19.0
      thresh= 5.145E-05 alpha_mix =  0.300 |ddv_scf|^2 =  2.834E-08

      iter #   3 total cpu time : 32371.5 secs   av.it.:  19.9
      thresh= 1.683E-05 alpha_mix =  0.300 |ddv_scf|^2 =  9.289E-09

      iter #   4 total cpu time : 32508.4 secs   av.it.:  19.9
      thresh= 9.638E-06 alpha_mix =  0.300 |ddv_scf|^2 =  5.987E-10

      iter #   5 total cpu time : 32646.2 secs   av.it.:  20.0
      thresh= 2.447E-06 alpha_mix =  0.300 |ddv_scf|^2 =  9.232E-11

     End of self-consistent calculation

     Convergence has been achieved 


     Representation #  22 mode #  22

     Self-consistent Calculation

      iter #   1 total cpu time : 32717.6 secs   av.it.:   8.9
      thresh= 1.000E-02 alpha_mix =  0.300 |ddv_scf|^2 =  2.152E-07

      iter #   2 total cpu time : 32849.1 secs   av.it.:  19.2
      thresh= 4.639E-05 alpha_mix =  0.300 |ddv_scf|^2 =  2.540E-08

      iter #   3 total cpu time : 32984.0 secs   av.it.:  19.9
      thresh= 1.594E-05 alpha_mix =  0.300 |ddv_scf|^2 =  6.948E-09

      iter #   4 total cpu time : 33121.5 secs   av.it.:  20.0
      thresh= 8.335E-06 alpha_mix =  0.300 |ddv_scf|^2 =  3.209E-10

      iter #   5 total cpu time : 33261.2 secs   av.it.:  20.8
      thresh= 1.791E-06 alpha_mix =  0.300 |ddv_scf|^2 =  4.723E-11

     End of self-consistent calculation

     Convergence has been achieved 


     Representation #  23 mode #  23

     Self-consistent Calculation

      iter #   1 total cpu time : 33331.5 secs   av.it.:   8.0
      thresh= 1.000E-02 alpha_mix =  0.300 |ddv_scf|^2 =  1.651E-07

      iter #   2 total cpu time : 33463.2 secs   av.it.:  18.9
      thresh= 4.063E-05 alpha_mix =  0.300 |ddv_scf|^2 =  2.493E-08

      iter #   3 total cpu time : 33600.1 secs   av.it.:  20.0
      thresh= 1.579E-05 alpha_mix =  0.300 |ddv_scf|^2 =  4.856E-09

      iter #   4 total cpu time : 33738.0 secs   av.it.:  20.0
      thresh= 6.968E-06 alpha_mix =  0.300 |ddv_scf|^2 =  2.561E-10

      iter #   5 total cpu time : 33878.5 secs   av.it.:  20.8
      thresh= 1.600E-06 alpha_mix =  0.300 |ddv_scf|^2 =  1.549E-11

     End of self-consistent calculation

     Convergence has been achieved 


     Representation #  24 mode #  24

     Self-consistent Calculation

      iter #   1 total cpu time : 33949.4 secs   av.it.:   8.8
      thresh= 1.000E-02 alpha_mix =  0.300 |ddv_scf|^2 =  2.645E-07

      iter #   2 total cpu time : 34081.9 secs   av.it.:  19.0
      thresh= 5.143E-05 alpha_mix =  0.300 |ddv_scf|^2 =  2.832E-08

      iter #   3 total cpu time : 34219.6 secs   av.it.:  19.9
      thresh= 1.683E-05 alpha_mix =  0.300 |ddv_scf|^2 =  9.275E-09

      iter #   4 total cpu time : 34356.3 secs   av.it.:  19.9
      thresh= 9.631E-06 alpha_mix =  0.300 |ddv_scf|^2 =  5.985E-10

      iter #   5 total cpu time : 34494.1 secs   av.it.:  20.0
      thresh= 2.446E-06 alpha_mix =  0.300 |ddv_scf|^2 =  9.224E-11

     End of self-consistent calculation

     Convergence has been achieved 


     Representation #  25 mode #  25

     Self-consistent Calculation

      iter #   1 total cpu time : 34565.9 secs   av.it.:   8.9
      thresh= 1.000E-02 alpha_mix =  0.300 |ddv_scf|^2 =  2.151E-07

      iter #   2 total cpu time : 34689.2 secs   av.it.:  19.3
      thresh= 4.638E-05 alpha_mix =  0.300 |ddv_scf|^2 =  2.540E-08

      iter #   3 total cpu time : 34807.6 secs   av.it.:  19.9
      thresh= 1.594E-05 alpha_mix =  0.300 |ddv_scf|^2 =  6.949E-09

      iter #   4 total cpu time : 34927.8 secs   av.it.:  19.9
      thresh= 8.336E-06 alpha_mix =  0.300 |ddv_scf|^2 =  3.213E-10

      iter #   5 total cpu time : 35050.3 secs   av.it.:  20.8
      thresh= 1.793E-06 alpha_mix =  0.300 |ddv_scf|^2 =  4.766E-11

     End of self-consistent calculation

     Convergence has been achieved 


     Representation #  26 mode #  26

     Self-consistent Calculation

      iter #   1 total cpu time : 35111.0 secs   av.it.:   8.0
      thresh= 1.000E-02 alpha_mix =  0.300 |ddv_scf|^2 =  1.651E-07

      iter #   2 total cpu time : 35225.2 secs   av.it.:  18.9
      thresh= 4.063E-05 alpha_mix =  0.300 |ddv_scf|^2 =  2.493E-08

      iter #   3 total cpu time : 35343.7 secs   av.it.:  20.0
      thresh= 1.579E-05 alpha_mix =  0.300 |ddv_scf|^2 =  4.856E-09

      iter #   4 total cpu time : 35462.7 secs   av.it.:  20.0
      thresh= 6.969E-06 alpha_mix =  0.300 |ddv_scf|^2 =  2.561E-10

      iter #   5 total cpu time : 35584.2 secs   av.it.:  20.8
      thresh= 1.600E-06 alpha_mix =  0.300 |ddv_scf|^2 =  1.568E-11

     End of self-consistent calculation

     Convergence has been achieved 


     Representation #  27 mode #  27

     Self-consistent Calculation

      iter #   1 total cpu time : 35645.9 secs   av.it.:   8.9
      thresh= 1.000E-02 alpha_mix =  0.300 |ddv_scf|^2 =  2.647E-07

      iter #   2 total cpu time : 35760.6 secs   av.it.:  19.0
      thresh= 5.145E-05 alpha_mix =  0.300 |ddv_scf|^2 =  2.834E-08

      iter #   3 total cpu time : 35879.8 secs   av.it.:  19.9
      thresh= 1.683E-05 alpha_mix =  0.300 |ddv_scf|^2 =  9.289E-09

      iter #   4 total cpu time : 35998.0 secs   av.it.:  19.9
      thresh= 9.638E-06 alpha_mix =  0.300 |ddv_scf|^2 =  5.987E-10

      iter #   5 total cpu time : 36116.7 secs   av.it.:  20.0
      thresh= 2.447E-06 alpha_mix =  0.300 |ddv_scf|^2 =  9.232E-11

     End of self-consistent calculation

     Convergence has been achieved 


     Representation #  28 mode #  28

     Self-consistent Calculation

      iter #   1 total cpu time : 36178.7 secs   av.it.:   8.9
      thresh= 1.000E-02 alpha_mix =  0.300 |ddv_scf|^2 =  2.151E-07

      iter #   2 total cpu time : 36293.3 secs   av.it.:  19.3
      thresh= 4.638E-05 alpha_mix =  0.300 |ddv_scf|^2 =  2.540E-08

      iter #   3 total cpu time : 36411.4 secs   av.it.:  19.9
      thresh= 1.594E-05 alpha_mix =  0.300 |ddv_scf|^2 =  6.949E-09

      iter #   4 total cpu time : 36531.4 secs   av.it.:  19.9
      thresh= 8.336E-06 alpha_mix =  0.300 |ddv_scf|^2 =  3.213E-10

      iter #   5 total cpu time : 36652.6 secs   av.it.:  20.8
      thresh= 1.792E-06 alpha_mix =  0.300 |ddv_scf|^2 =  4.764E-11

     End of self-consistent calculation

     Convergence has been achieved 


     Representation #  29 mode #  29

     Self-consistent Calculation

      iter #   1 total cpu time : 36712.9 secs   av.it.:   8.0
      thresh= 1.000E-02 alpha_mix =  0.300 |ddv_scf|^2 =  1.651E-07

      iter #   2 total cpu time : 36826.3 secs   av.it.:  19.0
      thresh= 4.063E-05 alpha_mix =  0.300 |ddv_scf|^2 =  2.493E-08

      iter #   3 total cpu time : 36944.3 secs   av.it.:  20.0
      thresh= 1.579E-05 alpha_mix =  0.300 |ddv_scf|^2 =  4.857E-09

      iter #   4 total cpu time : 37062.9 secs   av.it.:  20.0
      thresh= 6.969E-06 alpha_mix =  0.300 |ddv_scf|^2 =  2.561E-10

      iter #   5 total cpu time : 37184.3 secs   av.it.:  20.8
      thresh= 1.600E-06 alpha_mix =  0.300 |ddv_scf|^2 =  1.567E-11

     End of self-consistent calculation

     Convergence has been achieved 


     Representation #  30 mode #  30

     Self-consistent Calculation

      iter #   1 total cpu time : 37245.8 secs   av.it.:   8.9
      thresh= 1.000E-02 alpha_mix =  0.300 |ddv_scf|^2 =  2.647E-07

      iter #   2 total cpu time : 37359.6 secs   av.it.:  19.0
      thresh= 5.145E-05 alpha_mix =  0.300 |ddv_scf|^2 =  2.834E-08

      iter #   3 total cpu time : 37478.3 secs   av.it.:  19.9
      thresh= 1.683E-05 alpha_mix =  0.300 |ddv_scf|^2 =  9.289E-09

      iter #   4 total cpu time : 37596.0 secs   av.it.:  19.9
      thresh= 9.638E-06 alpha_mix =  0.300 |ddv_scf|^2 =  5.987E-10

      iter #   5 total cpu time : 37714.4 secs   av.it.:  20.0
      thresh= 2.447E-06 alpha_mix =  0.300 |ddv_scf|^2 =  9.232E-11

     End of self-consistent calculation

     Convergence has been achieved 


     Representation #  31 mode #  31

     Self-consistent Calculation

      iter #   1 total cpu time : 37776.5 secs   av.it.:   8.9
      thresh= 1.000E-02 alpha_mix =  0.300 |ddv_scf|^2 =  2.152E-07

      iter #   2 total cpu time : 37891.2 secs   av.it.:  19.2
      thresh= 4.639E-05 alpha_mix =  0.300 |ddv_scf|^2 =  2.540E-08

      iter #   3 total cpu time : 38009.2 secs   av.it.:  19.9
      thresh= 1.594E-05 alpha_mix =  0.300 |ddv_scf|^2 =  6.948E-09

      iter #   4 total cpu time : 38128.0 secs   av.it.:  20.0
      thresh= 8.335E-06 alpha_mix =  0.300 |ddv_scf|^2 =  3.209E-10

      iter #   5 total cpu time : 38249.3 secs   av.it.:  20.8
      thresh= 1.791E-06 alpha_mix =  0.300 |ddv_scf|^2 =  4.725E-11

     End of self-consistent calculation

     Convergence has been achieved 


     Representation #  32 mode #  32

     Self-consistent Calculation

      iter #   1 total cpu time : 38309.5 secs   av.it.:   8.0
      thresh= 1.000E-02 alpha_mix =  0.300 |ddv_scf|^2 =  1.651E-07

      iter #   2 total cpu time : 38423.1 secs   av.it.:  18.9
      thresh= 4.063E-05 alpha_mix =  0.300 |ddv_scf|^2 =  2.493E-08

      iter #   3 total cpu time : 38541.6 secs   av.it.:  20.0
      thresh= 1.579E-05 alpha_mix =  0.300 |ddv_scf|^2 =  4.855E-09

      iter #   4 total cpu time : 38660.1 secs   av.it.:  20.0
      thresh= 6.968E-06 alpha_mix =  0.300 |ddv_scf|^2 =  2.561E-10

      iter #   5 total cpu time : 38781.7 secs   av.it.:  20.8
      thresh= 1.600E-06 alpha_mix =  0.300 |ddv_scf|^2 =  1.549E-11

     End of self-consistent calculation

     Convergence has been achieved 


     Representation #  33 mode #  33

     Self-consistent Calculation

      iter #   1 total cpu time : 38843.9 secs   av.it.:   8.8
      thresh= 1.000E-02 alpha_mix =  0.300 |ddv_scf|^2 =  2.645E-07

      iter #   2 total cpu time : 38957.8 secs   av.it.:  19.0
      thresh= 5.143E-05 alpha_mix =  0.300 |ddv_scf|^2 =  2.832E-08

      iter #   3 total cpu time : 39076.6 secs   av.it.:  19.9
      thresh= 1.683E-05 alpha_mix =  0.300 |ddv_scf|^2 =  9.275E-09

      iter #   4 total cpu time : 39194.3 secs   av.it.:  19.9
      thresh= 9.631E-06 alpha_mix =  0.300 |ddv_scf|^2 =  5.985E-10

      iter #   5 total cpu time : 39312.8 secs   av.it.:  20.0
      thresh= 2.446E-06 alpha_mix =  0.300 |ddv_scf|^2 =  9.224E-11

     End of self-consistent calculation

     Convergence has been achieved 


     Representation #  34 mode #  34

     Self-consistent Calculation

      iter #   1 total cpu time : 39373.3 secs   av.it.:   8.0
      thresh= 1.000E-02 alpha_mix =  0.300 |ddv_scf|^2 =  1.651E-07

      iter #   2 total cpu time : 39487.3 secs   av.it.:  18.9
      thresh= 4.063E-05 alpha_mix =  0.300 |ddv_scf|^2 =  2.493E-08

      iter #   3 total cpu time : 39605.4 secs   av.it.:  20.0
      thresh= 1.579E-05 alpha_mix =  0.300 |ddv_scf|^2 =  4.855E-09

      iter #   4 total cpu time : 39724.0 secs   av.it.:  20.0
      thresh= 6.968E-06 alpha_mix =  0.300 |ddv_scf|^2 =  2.561E-10

      iter #   5 total cpu time : 39845.4 secs   av.it.:  20.8
      thresh= 1.600E-06 alpha_mix =  0.300 |ddv_scf|^2 =  1.567E-11

     End of self-consistent calculation

     Convergence has been achieved 


     Representation #  35 mode #  35

     Self-consistent Calculation

      iter #   1 total cpu time : 39907.6 secs   av.it.:   8.9
      thresh= 1.000E-02 alpha_mix =  0.300 |ddv_scf|^2 =  2.151E-07

      iter #   2 total cpu time : 40022.1 secs   av.it.:  19.3
      thresh= 4.638E-05 alpha_mix =  0.300 |ddv_scf|^2 =  2.540E-08

      iter #   3 total cpu time : 40140.2 secs   av.it.:  19.9
      thresh= 1.594E-05 alpha_mix =  0.300 |ddv_scf|^2 =  6.949E-09

      iter #   4 total cpu time : 40259.3 secs   av.it.:  19.9
      thresh= 8.336E-06 alpha_mix =  0.300 |ddv_scf|^2 =  3.213E-10

      iter #   5 total cpu time : 40380.4 secs   av.it.:  20.8
      thresh= 1.793E-06 alpha_mix =  0.300 |ddv_scf|^2 =  4.768E-11

     End of self-consistent calculation

     Convergence has been achieved 


     Representation #  36 mode #  36

     Self-consistent Calculation

      iter #   1 total cpu time : 40441.9 secs   av.it.:   8.9
      thresh= 1.000E-02 alpha_mix =  0.300 |ddv_scf|^2 =  2.647E-07

      iter #   2 total cpu time : 40555.6 secs   av.it.:  19.0
      thresh= 5.145E-05 alpha_mix =  0.300 |ddv_scf|^2 =  2.834E-08

      iter #   3 total cpu time : 40674.1 secs   av.it.:  19.9
      thresh= 1.683E-05 alpha_mix =  0.300 |ddv_scf|^2 =  9.289E-09

      iter #   4 total cpu time : 40792.0 secs   av.it.:  19.9
      thresh= 9.638E-06 alpha_mix =  0.300 |ddv_scf|^2 =  5.987E-10

      iter #   5 total cpu time : 40910.4 secs   av.it.:  20.0
      thresh= 2.447E-06 alpha_mix =  0.300 |ddv_scf|^2 =  9.232E-11

     End of self-consistent calculation

     Convergence has been achieved 

     Number of q in the star =    1
     List of q in the star:
          1   0.000000000   0.000000000   0.000000000

          Dielectric constant in cartesian axis 

          (       3.399113213      -0.000284340      -0.000027300 )
          (       0.000225210       3.399132911       0.000024140 )
          (      -0.000013427       0.000028989       3.406280691 )

          Effective charges (d Force / dE) in cartesian axis

           atom      1   Ba 
      Ex  (        1.91873        0.06372        0.00796 )
      Ey  (       -0.07027        1.93673       -0.00101 )
      Ez  (        0.00031        0.00883        1.76015 )
           atom      2   Ba 
      Ex  (        1.92873        0.08244       -0.00464 )
      Ey  (       -0.06333        1.92445       -0.00084 )
      Ez  (       -0.00339        0.00819        1.76742 )
           atom      3   W  
      Ex  (        3.98151       -0.09583       -0.00256 )
      Ey  (        0.10005        3.98222        0.00396 )
      Ez  (       -0.00018       -0.00024        3.91029 )
           atom      4   W  
      Ex  (        3.98242       -0.10006        0.00265 )
      Ey  (        0.09634        3.98135       -0.00414 )
      Ez  (        0.00024       -0.00014        3.91705 )
           atom      5   O  
      Ex  (       -1.34807       -0.70232        0.43778 )
      Ey  (       -0.71540       -2.08236        0.86738 )
      Ez  (        0.37523        0.91829       -1.74544 )
           atom      6   O  
      Ex  (       -1.34810       -0.70200       -0.43683 )
      Ey  (       -0.71557       -2.08279       -0.86875 )
      Ez  (       -0.37524       -0.91842       -1.74547 )
           atom      7   O  
      Ex  (       -1.34804       -0.70193       -0.43899 )
      Ey  (       -0.71457       -2.08063       -0.86691 )
      Ez  (       -0.37651       -0.91987       -1.74813 )
           atom      8   O  
      Ex  (       -2.08245        0.71551        0.86767 )
      Ey  (        0.70210       -1.34803       -0.43678 )
      Ez  (        0.91872       -0.37529       -1.74663 )
           atom      9   O  
      Ex  (       -2.08088        0.71461        0.86791 )
      Ey  (        0.70222       -1.34810       -0.43938 )
      Ez  (        0.91946       -0.37644       -1.74691 )
           atom     10   O  
      Ex  (       -2.08058        0.71461       -0.86700 )
      Ey  (        0.70172       -1.34795        0.43796 )
      Ez  (       -0.91937        0.37637       -1.74687 )
           atom     11   O  
      Ex  (       -2.08262        0.71561       -0.86841 )
      Ey  (        0.70247       -1.34818        0.43811 )
      Ez  (       -0.91869        0.37526       -1.74654 )
           atom     12   O  
      Ex  (       -1.34791       -0.70166        0.43812 )
      Ey  (       -0.71469       -2.08089        0.86813 )
      Ez  (        0.37643        0.91974       -1.74799 )

     Diagonalizing the dynamical matrix

     q = (    0.000000000   0.000000000   0.000000000 ) 

 **************************************************************************
     freq (    1) =     -20.206535 [THz] =    -674.017453 [cm-1]
     freq (    2) =     -19.984453 [THz] =    -666.609589 [cm-1]
     freq (    3) =     -19.983914 [THz] =    -666.591620 [cm-1]
     freq (    4) =     -19.580025 [THz] =    -653.119335 [cm-1]
     freq (    5) =     -19.579805 [THz] =    -653.111989 [cm-1]
     freq (    6) =     -17.920023 [THz] =    -597.747640 [cm-1]
     freq (    7) =     -13.821870 [THz] =    -461.047956 [cm-1]
     freq (    8) =     -13.545705 [THz] =    -451.836086 [cm-1]
     freq (    9) =     -12.588718 [THz] =    -419.914449 [cm-1]
     freq (   10) =     -12.571958 [THz] =    -419.355390 [cm-1]
     freq (   11) =     -12.571062 [THz] =    -419.325476 [cm-1]
     freq (   12) =     -11.017281 [THz] =    -367.496933 [cm-1]
     freq (   13) =     -11.016730 [THz] =    -367.478544 [cm-1]
     freq (   14) =     -10.991646 [THz] =    -366.641846 [cm-1]
     freq (   15) =     -10.990285 [THz] =    -366.596450 [cm-1]
     freq (   16) =     -10.388462 [THz] =    -346.521792 [cm-1]
     freq (   17) =      -9.154748 [THz] =    -305.369533 [cm-1]
     freq (   18) =      -5.598516 [THz] =    -186.746384 [cm-1]
     freq (   19) =      -5.598154 [THz] =    -186.734318 [cm-1]
     freq (   20) =       3.062232 [THz] =     102.145078 [cm-1]
     freq (   21) =       3.877685 [THz] =     129.345642 [cm-1]
     freq (   22) =       3.877795 [THz] =     129.349322 [cm-1]
     freq (   23) =       3.985141 [THz] =     132.930002 [cm-1]
     freq (   24) =       4.102987 [THz] =     136.860898 [cm-1]
     freq (   25) =       4.187731 [THz] =     139.687663 [cm-1]
     freq (   26) =       4.187737 [THz] =     139.687861 [cm-1]
     freq (   27) =       5.468380 [THz] =     182.405528 [cm-1]
     freq (   28) =       6.799684 [THz] =     226.813060 [cm-1]
     freq (   29) =      19.484990 [THz] =     649.949307 [cm-1]
     freq (   30) =      19.485694 [THz] =     649.972781 [cm-1]
     freq (   31) =      19.538511 [THz] =     651.734559 [cm-1]
     freq (   32) =      19.587600 [THz] =     653.372022 [cm-1]
     freq (   33) =      19.588214 [THz] =     653.392476 [cm-1]
     freq (   34) =      20.285587 [THz] =     676.654345 [cm-1]
     freq (   35) =      23.821634 [THz] =     794.604187 [cm-1]
     freq (   36) =      24.616700 [THz] =     821.124734 [cm-1]
 **************************************************************************

     Mode symmetry, C_1 (1)     point group:

     freq (   1-   1) =       -674.0  [cm-1]   --> A               I+R
     freq (   2-   2) =       -666.6  [cm-1]   --> A               I+R
     freq (   3-   3) =       -666.6  [cm-1]   --> A               I+R
     freq (   4-   4) =       -653.1  [cm-1]   --> A               I+R
     freq (   5-   5) =       -653.1  [cm-1]   --> A               I+R
     freq (   6-   6) =       -597.7  [cm-1]   --> A               I+R
     freq (   7-   7) =       -461.0  [cm-1]   --> A               I+R
     freq (   8-   8) =       -451.8  [cm-1]   --> A               I+R
     freq (   9-   9) =       -419.9  [cm-1]   --> A               I+R
     freq (  10-  10) =       -419.4  [cm-1]   --> A               I+R
     freq (  11-  11) =       -419.3  [cm-1]   --> A               I+R
     freq (  12-  12) =       -367.5  [cm-1]   --> A               I+R
     freq (  13-  13) =       -367.5  [cm-1]   --> A               I+R
     freq (  14-  14) =       -366.6  [cm-1]   --> A               I+R
     freq (  15-  15) =       -366.6  [cm-1]   --> A               I+R
     freq (  16-  16) =       -346.5  [cm-1]   --> A               I+R
     freq (  17-  17) =       -305.4  [cm-1]   --> A               I+R
     freq (  18-  18) =       -186.7  [cm-1]   --> A               I+R
     freq (  19-  19) =       -186.7  [cm-1]   --> A               I+R
     freq (  20-  20) =        102.1  [cm-1]   --> A               I+R
     freq (  21-  21) =        129.3  [cm-1]   --> A               I+R
     freq (  22-  22) =        129.3  [cm-1]   --> A               I+R
     freq (  23-  23) =        132.9  [cm-1]   --> A               I+R
     freq (  24-  24) =        136.9  [cm-1]   --> A               I+R
     freq (  25-  25) =        139.7  [cm-1]   --> A               I+R
     freq (  26-  26) =        139.7  [cm-1]   --> A               I+R
     freq (  27-  27) =        182.4  [cm-1]   --> A               I+R
     freq (  28-  28) =        226.8  [cm-1]   --> A               I+R
     freq (  29-  29) =        649.9  [cm-1]   --> A               I+R
     freq (  30-  30) =        650.0  [cm-1]   --> A               I+R
     freq (  31-  31) =        651.7  [cm-1]   --> A               I+R
     freq (  32-  32) =        653.4  [cm-1]   --> A               I+R
     freq (  33-  33) =        653.4  [cm-1]   --> A               I+R
     freq (  34-  34) =        676.7  [cm-1]   --> A               I+R
     freq (  35-  35) =        794.6  [cm-1]   --> A               I+R
     freq (  36-  36) =        821.1  [cm-1]   --> A               I+R

     PHONON       :     11h10m CPU     11h21m WALL

     INITIALIZATION: 
     phq_setup    :      0.28s CPU      0.31s WALL (       1 calls)
     phq_init     :    231.92s CPU    238.07s WALL (       1 calls)

     phq_init     :    231.92s CPU    238.07s WALL (       1 calls)
     set_drhoc    :      1.82s CPU      1.83s WALL (       1 calls)
     init_vloc    :      0.50s CPU      0.50s WALL (       1 calls)
     init_us_1    :      0.24s CPU      0.24s WALL (       1 calls)
     newd         :      0.65s CPU      0.76s WALL (       1 calls)
     drho         :    220.59s CPU    226.68s WALL (       1 calls)
     cmpt_qdipol  :      0.00s CPU      0.00s WALL (       1 calls)

     DIELECTRIC CONSTANT AND EFFECTIVE CHARGES:
     solve_e      :   7198.89s CPU   7308.95s WALL (       1 calls)
     dielec       :      0.16s CPU      0.31s WALL (       1 calls)
     zstar_eu     :   2794.18s CPU   2810.24s WALL (       1 calls)

     DYNAMICAL MATRIX:
     phqscf       :  30017.73s CPU  30551.04s WALL (       1 calls)
     dynmatrix    :      0.01s CPU      0.01s WALL (       1 calls)

     phqscf       :  30017.73s CPU  30551.04s WALL (       1 calls)
     solve_linter :  29860.44s CPU  30391.85s WALL (      36 calls)
     drhodv       :    157.16s CPU    158.12s WALL (      36 calls)



     phqscf       :  30017.73s CPU  30551.04s WALL (       1 calls)
     solve_linter :  29860.44s CPU  30391.85s WALL (      36 calls)

     solve_linter :  29860.44s CPU  30391.85s WALL (      36 calls)
     dvqpsi_us    :    515.34s CPU    526.59s WALL (    2592 calls)
     ortho        :    618.71s CPU    619.95s WALL (    7524 calls)
     cgsolve      :  34144.22s CPU  34709.96s WALL (    7524 calls)
     incdrhoscf   :    770.68s CPU    801.34s WALL (    7632 calls)
     addusddens   :    183.08s CPU    183.34s WALL (     224 calls)
     vpsifft      :    308.14s CPU    330.35s WALL (    5472 calls)
     dv_of_drho   :     19.16s CPU     19.75s WALL (     212 calls)
     mix_pot      :      1.96s CPU      3.53s WALL (     195 calls)
     psymdvscf    :     16.80s CPU     17.55s WALL (     188 calls)
     newdq        :    150.45s CPU    150.60s WALL (     195 calls)
     adddvscf     :    218.57s CPU    218.73s WALL (    6228 calls)
     drhodvus     :      0.93s CPU      1.61s WALL (      36 calls)

     dvqpsi_us    :    515.34s CPU    526.59s WALL (    2592 calls)
     dvqpsi_us_on :    307.91s CPU    308.12s WALL (    2592 calls)

     cgsolve      :  34144.22s CPU  34709.96s WALL (    7524 calls)
     ch_psi       :  33442.18s CPU  34005.15s WALL (  184675 calls)

     ch_psi       :  33442.18s CPU  34005.15s WALL (  184675 calls)
     h_psi        :  16934.59s CPU  17475.96s WALL (  184675 calls)
     last         :  12129.26s CPU  12148.62s WALL (  184675 calls)

     h_psi        :  16934.59s CPU  17475.96s WALL (  184675 calls)
     add_vuspsi   :   4314.43s CPU   4316.62s WALL (  184675 calls)

     incdrhoscf   :    770.68s CPU    801.34s WALL (    7632 calls)
     addusdbec    :    313.64s CPU    314.40s WALL (    8928 calls)

     drhodvus     :      0.93s CPU      1.61s WALL (      36 calls)

      General routines
     calbec       :  11536.13s CPU  11568.15s WALL (  422234 calls)
     fft          :     47.00s CPU     48.70s WALL (    6045 calls)
     ffts         :     17.72s CPU     18.22s WALL (    4385 calls)
     fftw         :   7740.80s CPU   8251.38s WALL (15050146 calls)
     davcio       :      9.57s CPU     21.54s WALL (   44708 calls)
     write_rec    :      0.42s CPU      2.88s WALL (     231 calls)


     PHONON       :     11h10m CPU     11h21m WALL


   This run was terminated on:  14:50:31   5Jul2026            

=------------------------------------------------------------------------------=
   JOB DONE.
=------------------------------------------------------------------------------=
