
     Program PWSCF v.6.7MaX starts on  3Jul2026 at 18:24:21 

     This program is part of the open-source Quantum ESPRESSO suite
     for quantum simulation of materials; please cite
         "P. Giannozzi et al., J. Phys.:Condens. Matter 21 395502 (2009);
         "P. Giannozzi et al., J. Phys.:Condens. Matter 29 465901 (2017);
          URL http://www.quantum-espresso.org", 
     in publications or presentations arising from this work. More details at
     http://www.quantum-espresso.org/quote

     Parallel version (MPI), running on     8 processors

     MPI processes distributed on     1 nodes
     K-points division:     npool     =       2
     R & G space division:  proc/nbgrp/npool/nimage =       4
     Waiting for input...
     Reading input from standard input
Warning: card &CELL ignored
Warning: card / ignored

     Current dimensions of program PWSCF are:
     Max number of different atomic species (ntypx) = 10
     Max number of k-points (npk) =  40000
     Max angular momentum in pseudopotentials (lmaxx) =  3
     file Ba.pbe-spn-kjpaw_psl.1.0.0.UPF: wavefunction(s)  5S 6S renormalized
     file O.pbe-n-kjpaw_psl.0.1.UPF: wavefunction(s)  2P renormalized

     Subspace diagonalization in iterative solution of the eigenvalue problem:
     one sub-group per band group will be used
     scalapack distributed-memory algorithm (size of sub-group:  2*  2 procs)


     Parallelization info
     --------------------
     sticks:   dense  smooth     PW     G-vecs:    dense   smooth      PW
     Min        1738     870    269                61290    21659    3745
     Max        1739     871    270                61291    21660    3746
     Sum        6955    3483   1077               245163    86639   14981



     bravais-lattice index     =            0
     lattice parameter (alat)  =      14.2199  a.u.
     unit-cell volume          =    1380.2297 (a.u.)^3
     number of atoms/cell      =           12
     number of atomic types    =            3
     number of electrons       =        96.00
     number of Kohn-Sham states=           48
     kinetic-energy cutoff     =      60.0000  Ry
     charge density cutoff     =     480.0000  Ry
     scf convergence threshold =      1.0E-10
     mixing beta               =       0.3000
     number of iterations used =            8  plain     mixing
     Exchange-correlation= SLA  PW   PBX  PBC
                           (   1   4   3   4   0   0   0)

     celldm(1)=  14.219920  celldm(2)=   0.000000  celldm(3)=   0.000000
     celldm(4)=   0.000000  celldm(5)=   0.000000  celldm(6)=   0.000000

     crystal axes: (cart. coord. in units of alat)
               a(1) = (  -0.376534   0.376534   0.846430 )  
               a(2) = (   0.376534  -0.376534   0.846430 )  
               a(3) = (   0.376534   0.376534  -0.846430 )  

     reciprocal axes: (cart. coord. in units 2 pi/alat)
               b(1) = (  0.000000  1.327901  0.590716 )  
               b(2) = (  1.327901 -0.000000  0.590716 )  
               b(3) = (  1.327901  1.327901  0.000000 )  


     PseudoPot. # 1 for Ba read from file:
     /data/pseudopotentials/Ba.pbe-spn-kjpaw_psl.1.0.0.UPF
     MD5 check sum: 7cfe25f1fe7574a4710541d5a11d6531
     Pseudo is Projector augmented-wave + core cor, Zval = 10.0
     Generated using &quot;atomic&quot; code by A. Dal Corso  v.6.2.2
     Shape of augmentation charge: PSQ
     Using radial grid of 1251 points,  7 beta functions with: 
                l(1) =   0
                l(2) =   0
                l(3) =   0
                l(4) =   1
                l(5) =   1
                l(6) =   2
                l(7) =   2
     Q(r) pseudized with 0 coefficients 


     PseudoPot. # 2 for W  read from file:
     /data/pseudopotentials/w_pbe_v1.2.uspp.F.UPF
     MD5 check sum: 9c083fa34c2a2ea0f02f1f893e16e1c8
     Pseudo is Ultrasoft + core correction, Zval = 14.0
     Generated by new atomic code, or converted to UPF format
     Using radial grid of  923 points,  8 beta functions with: 
                l(1) =   0
                l(2) =   0
                l(3) =   0
                l(4) =   1
                l(5) =   1
                l(6) =   2
                l(7) =   2
                l(8) =   3
     Q(r) pseudized with  6 coefficients,  rinner =    1.350   1.350   1.350
                                                       1.350   1.350   1.350
                                                       1.350

     PseudoPot. # 3 for O  read from file:
     /data/pseudopotentials/O.pbe-n-kjpaw_psl.0.1.UPF
     MD5 check sum: 833c495a5d0f9b75bf046115549bffff
     Pseudo is Projector augmented-wave + core cor, Zval =  6.0
     Generated using &quot;atomic&quot; code by A. Dal Corso  v.6.3
     Shape of augmentation charge: BESSEL
     Using radial grid of 1095 points,  4 beta functions with: 
                l(1) =   0
                l(2) =   0
                l(3) =   1
                l(4) =   1
     Q(r) pseudized with 0 coefficients 


     atomic species   valence    mass     pseudopotential
        Ba            10.00   137.32700     Ba( 1.00)
        W             14.00   183.84000     W ( 1.00)
        O              6.00    15.99900     O ( 1.00)

     No symmetry found



   Cartesian axes

     site n.     atom                  positions (alat units)
         1           Ba  tau(   1) = (   0.3765341  -0.0000000   0.4246851  )
         2           Ba  tau(   2) = (  -0.0000000   0.0000000   0.8479002  )
         3           W   tau(   3) = (   0.0000000   0.3765341   0.4245869  )
         4           W   tau(   4) = (   0.0000000  -0.0000000   0.0013718  )
         5           O   tau(   5) = (   0.0945052   0.1737678  -0.1315917  )
         6           O   tau(   6) = (   0.2820290   0.2027663   0.7148385  )
         7           O   tau(   7) = (   0.4710238   0.1736867  -0.2887461  )
         8           O   tau(   8) = (   0.1737678   0.2820290   0.2916234  )
         9           O   tau(   9) = (   0.5793816   0.0944896   0.1344690  )
        10           O   tau(  10) = (  -0.2028475   0.2820445   0.9808992  )
        11           O   tau(  11) = (   0.2027663   0.0945052   1.1380536  )
        12           O   tau(  12) = (  -0.0944896   0.2028475   0.5576841  )

     number of k points=    36
                       cart. coord. in units 2pi/alat
        k(    1) = (   0.0000000   0.0000000   0.0000000), wk =   0.0312500
        k(    2) = (   0.3319752   0.3319752   0.0000000), wk =   0.0625000
        k(    3) = (  -0.6639504  -0.6639504   0.0000000), wk =   0.0312500
        k(    4) = (   0.3319752  -0.0000000   0.1476790), wk =   0.0625000
        k(    5) = (   0.6639504   0.3319752   0.1476790), wk =   0.0625000
        k(    6) = (  -0.3319752  -0.6639504   0.1476790), wk =   0.0625000
        k(    7) = (  -0.0000000  -0.3319752   0.1476790), wk =   0.0625000
        k(    8) = (  -0.6639504   0.0000000  -0.2953581), wk =   0.0312500
        k(    9) = (  -0.3319752   0.3319752  -0.2953581), wk =   0.0625000
        k(   10) = (  -1.3279008  -0.6639504  -0.2953581), wk =   0.0312500
        k(   11) = (   0.0000000   0.3319752   0.1476790), wk =   0.0625000
        k(   12) = (   0.3319752   0.6639504   0.1476790), wk =   0.0625000
        k(   13) = (  -0.6639504  -0.3319752   0.1476790), wk =   0.0625000
        k(   14) = (  -0.3319752   0.0000000   0.1476790), wk =   0.0625000
        k(   15) = (   0.3319752   0.3319752   0.2953581), wk =   0.0625000
        k(   16) = (   0.6639504   0.6639504   0.2953581), wk =   0.0625000
        k(   17) = (  -0.3319752  -0.3319752   0.2953581), wk =   0.0625000
        k(   18) = (   0.0000000   0.0000000   0.2953581), wk =   0.0625000
        k(   19) = (  -0.6639504   0.3319752  -0.1476790), wk =   0.0625000
        k(   20) = (  -0.3319752   0.6639504  -0.1476790), wk =   0.0625000
        k(   21) = (  -1.3279008  -0.3319752  -0.1476790), wk =   0.0625000
        k(   22) = (  -0.9959256   0.0000000  -0.1476790), wk =   0.0625000
        k(   23) = (  -0.3319752   0.3319752   0.0000000), wk =   0.0625000
        k(   24) = (   0.0000000   0.6639504   0.0000000), wk =   0.0625000
        k(   25) = (  -0.9959256  -0.3319752   0.0000000), wk =   0.0625000
        k(   26) = (  -0.6639504   0.0000000   0.0000000), wk =   0.0625000
        k(   27) = (  -0.0000000  -0.6639504  -0.2953581), wk =   0.0312500
        k(   28) = (   0.3319752  -0.3319752  -0.2953581), wk =   0.0625000
        k(   29) = (  -0.6639504  -1.3279008  -0.2953581), wk =   0.0312500
        k(   30) = (   0.3319752  -0.6639504  -0.1476790), wk =   0.0625000
        k(   31) = (   0.6639504  -0.3319752  -0.1476790), wk =   0.0625000
        k(   32) = (  -0.3319752  -1.3279008  -0.1476790), wk =   0.0625000
        k(   33) = (  -0.0000000  -0.9959256  -0.1476790), wk =   0.0625000
        k(   34) = (  -0.6639504  -0.6639504  -0.5907162), wk =   0.0312500
        k(   35) = (  -0.3319752  -0.3319752  -0.5907162), wk =   0.0625000
        k(   36) = (  -1.3279008  -1.3279008  -0.5907162), wk =   0.0312500

     Dense  grid:   245163 G-vectors     FFT dimensions: ( 100, 100, 100)

     Smooth grid:    86639 G-vectors     FFT dimensions: (  72,  72,  72)

     Estimated max dynamical RAM per process >     290.37 MB

     Estimated total dynamical RAM >       2.27 GB

     Initial potential from superposition of free atoms

     starting charge   95.76530, renormalised to   96.00000

     negative rho (up, down):  1.260E-01 0.000E+00
     Starting wfcs are   68 randomized atomic wfcs
     Checking if some PAW data can be deallocated... 

     total cpu time spent up to now is       38.3 secs

     Self-consistent Calculation

     iteration #  1     ecut=    60.00 Ry     beta= 0.30
     Davidson diagonalization with overlap
     ethr =  1.00E-02,  avg # of iterations =  2.0

     negative rho (up, down):  1.258E-01 0.000E+00

     total cpu time spent up to now is      103.8 secs

     total energy              =   -1523.94006486 Ry
     estimated scf accuracy    <       5.35325097 Ry

     iteration #  2     ecut=    60.00 Ry     beta= 0.30
     Davidson diagonalization with overlap
     ethr =  5.58E-03,  avg # of iterations =  4.0

     negative rho (up, down):  1.335E-01 0.000E+00

     total cpu time spent up to now is      192.5 secs

     total energy              =   -1525.14559663 Ry
     estimated scf accuracy    <       0.27277342 Ry

     iteration #  3     ecut=    60.00 Ry     beta= 0.30
     Davidson diagonalization with overlap
     ethr =  2.84E-04,  avg # of iterations =  2.4

     negative rho (up, down):  1.753E-01 0.000E+00

     total cpu time spent up to now is      265.5 secs

     total energy              =   -1525.13509129 Ry
     estimated scf accuracy    <       0.11867084 Ry

     iteration #  4     ecut=    60.00 Ry     beta= 0.30
     Davidson diagonalization with overlap
     ethr =  1.24E-04,  avg # of iterations =  4.5

     negative rho (up, down):  1.678E-01 0.000E+00

     total cpu time spent up to now is      362.5 secs

     total energy              =   -1525.14954283 Ry
     estimated scf accuracy    <       0.12085153 Ry

     iteration #  5     ecut=    60.00 Ry     beta= 0.30
     Davidson diagonalization with overlap
     ethr =  1.24E-04,  avg # of iterations =  3.5

     negative rho (up, down):  1.388E-01 0.000E+00

     total cpu time spent up to now is      438.5 secs

     total energy              =   -1525.17978193 Ry
     estimated scf accuracy    <       0.01232488 Ry

     iteration #  6     ecut=    60.00 Ry     beta= 0.30
     Davidson diagonalization with overlap
     ethr =  1.28E-05,  avg # of iterations =  5.5

     negative rho (up, down):  1.311E-01 0.000E+00

     total cpu time spent up to now is      556.4 secs

     total energy              =   -1525.15755307 Ry
     estimated scf accuracy    <       0.15687415 Ry

     iteration #  7     ecut=    60.00 Ry     beta= 0.30
     Davidson diagonalization with overlap
     ethr =  1.28E-05,  avg # of iterations =  6.0

     negative rho (up, down):  1.310E-01 0.000E+00

     total cpu time spent up to now is      671.8 secs

     total energy              =   -1525.17023092 Ry
     estimated scf accuracy    <       0.00785796 Ry

     iteration #  8     ecut=    60.00 Ry     beta= 0.30
     Davidson diagonalization with overlap
     ethr =  8.19E-06,  avg # of iterations =  4.0

     negative rho (up, down):  1.310E-01 0.000E+00

     total cpu time spent up to now is      762.0 secs

     total energy              =   -1525.17357908 Ry
     estimated scf accuracy    <       0.00218701 Ry

     iteration #  9     ecut=    60.00 Ry     beta= 0.30
     Davidson diagonalization with overlap
     ethr =  2.28E-06,  avg # of iterations =  3.9

     negative rho (up, down):  1.311E-01 0.000E+00

     total cpu time spent up to now is      836.2 secs

     total energy              =   -1525.17272088 Ry
     estimated scf accuracy    <       0.00644069 Ry

     iteration # 10     ecut=    60.00 Ry     beta= 0.30
     Davidson diagonalization with overlap
     ethr =  2.28E-06,  avg # of iterations =  2.0

     negative rho (up, down):  1.311E-01 0.000E+00

     total cpu time spent up to now is      905.5 secs

     total energy              =   -1525.17276660 Ry
     estimated scf accuracy    <       0.00329597 Ry

     iteration # 11     ecut=    60.00 Ry     beta= 0.30
     Davidson diagonalization with overlap
     ethr =  2.28E-06,  avg # of iterations =  1.0

     negative rho (up, down):  1.310E-01 0.000E+00

     total cpu time spent up to now is      963.5 secs

     total energy              =   -1525.17276465 Ry
     estimated scf accuracy    <       0.00237645 Ry

     iteration # 12     ecut=    60.00 Ry     beta= 0.30
     Davidson diagonalization with overlap
     ethr =  2.28E-06,  avg # of iterations =  1.0

     negative rho (up, down):  1.310E-01 0.000E+00

     total cpu time spent up to now is     1022.8 secs

     total energy              =   -1525.17274851 Ry
     estimated scf accuracy    <       0.00218237 Ry

     iteration # 13     ecut=    60.00 Ry     beta= 0.30
     Davidson diagonalization with overlap
     ethr =  2.27E-06,  avg # of iterations =  1.0

     negative rho (up, down):  1.310E-01 0.000E+00

     total cpu time spent up to now is     1079.8 secs

     total energy              =   -1525.17254987 Ry
     estimated scf accuracy    <       0.00179674 Ry

     iteration # 14     ecut=    60.00 Ry     beta= 0.30
     Davidson diagonalization with overlap
     ethr =  1.87E-06,  avg # of iterations =  2.0

     negative rho (up, down):  1.309E-01 0.000E+00

     total cpu time spent up to now is     1145.2 secs

     total energy              =   -1525.17233580 Ry
     estimated scf accuracy    <       0.00079911 Ry

     iteration # 15     ecut=    60.00 Ry     beta= 0.30
     Davidson diagonalization with overlap
     ethr =  8.32E-07,  avg # of iterations =  4.1

     negative rho (up, down):  1.309E-01 0.000E+00

     total cpu time spent up to now is     1229.5 secs

     total energy              =   -1525.17265009 Ry
     estimated scf accuracy    <       0.00032024 Ry

     iteration # 16     ecut=    60.00 Ry     beta= 0.30
     Davidson diagonalization with overlap
     ethr =  3.34E-07,  avg # of iterations =  1.0

     negative rho (up, down):  1.309E-01 0.000E+00

     total cpu time spent up to now is     1285.7 secs

     total energy              =   -1525.17266116 Ry
     estimated scf accuracy    <       0.00029508 Ry

     iteration # 17     ecut=    60.00 Ry     beta= 0.30
     Davidson diagonalization with overlap
     ethr =  3.07E-07,  avg # of iterations =  1.0

     negative rho (up, down):  1.309E-01 0.000E+00

     total cpu time spent up to now is     1340.1 secs

     total energy              =   -1525.17263430 Ry
     estimated scf accuracy    <       0.00026123 Ry

     iteration # 18     ecut=    60.00 Ry     beta= 0.30
     Davidson diagonalization with overlap
     ethr =  2.72E-07,  avg # of iterations =  1.0

     negative rho (up, down):  1.309E-01 0.000E+00

     total cpu time spent up to now is     1399.0 secs

     total energy              =   -1525.17264505 Ry
     estimated scf accuracy    <       0.00021077 Ry

     iteration # 19     ecut=    60.00 Ry     beta= 0.30
     Davidson diagonalization with overlap
     ethr =  2.20E-07,  avg # of iterations =  1.0

     negative rho (up, down):  1.309E-01 0.000E+00

     total cpu time spent up to now is     1456.6 secs

     total energy              =   -1525.17263482 Ry
     estimated scf accuracy    <       0.00034445 Ry

     iteration # 20     ecut=    60.00 Ry     beta= 0.30
     Davidson diagonalization with overlap
     ethr =  2.20E-07,  avg # of iterations =  1.0

     negative rho (up, down):  1.309E-01 0.000E+00

     total cpu time spent up to now is     1514.7 secs

     total energy              =   -1525.17261724 Ry
     estimated scf accuracy    <       0.00019400 Ry

     iteration # 21     ecut=    60.00 Ry     beta= 0.30
     Davidson diagonalization with overlap
     ethr =  2.02E-07,  avg # of iterations =  1.2

     negative rho (up, down):  1.309E-01 0.000E+00

     total cpu time spent up to now is     1571.6 secs

     total energy              =   -1525.17261766 Ry
     estimated scf accuracy    <       0.00009630 Ry

     iteration # 22     ecut=    60.00 Ry     beta= 0.30
     Davidson diagonalization with overlap
     ethr =  1.00E-07,  avg # of iterations =  2.4

     negative rho (up, down):  1.309E-01 0.000E+00

     total cpu time spent up to now is     1637.5 secs

     total energy              =   -1525.17262175 Ry
     estimated scf accuracy    <       0.00003314 Ry

     iteration # 23     ecut=    60.00 Ry     beta= 0.30
     Davidson diagonalization with overlap
     ethr =  3.45E-08,  avg # of iterations =  4.0

     negative rho (up, down):  1.309E-01 0.000E+00

     total cpu time spent up to now is     1716.7 secs

     total energy              =   -1525.17262349 Ry
     estimated scf accuracy    <       0.00001695 Ry

     iteration # 24     ecut=    60.00 Ry     beta= 0.30
     Davidson diagonalization with overlap
     ethr =  1.77E-08,  avg # of iterations =  3.6

     negative rho (up, down):  1.309E-01 0.000E+00

     total cpu time spent up to now is     1806.2 secs

     total energy              =   -1525.17262846 Ry
     estimated scf accuracy    <       0.00003026 Ry

     iteration # 25     ecut=    60.00 Ry     beta= 0.30
     Davidson diagonalization with overlap
     ethr =  1.77E-08,  avg # of iterations =  2.0

     negative rho (up, down):  1.309E-01 0.000E+00

     total cpu time spent up to now is     1878.4 secs

     total energy              =   -1525.17262741 Ry
     estimated scf accuracy    <       0.00001336 Ry

     iteration # 26     ecut=    60.00 Ry     beta= 0.30
     Davidson diagonalization with overlap
     ethr =  1.39E-08,  avg # of iterations =  1.0

     negative rho (up, down):  1.309E-01 0.000E+00

     total cpu time spent up to now is     1930.5 secs

     total energy              =   -1525.17262488 Ry
     estimated scf accuracy    <       0.00000841 Ry

     iteration # 27     ecut=    60.00 Ry     beta= 0.30
     Davidson diagonalization with overlap
     ethr =  8.76E-09,  avg # of iterations =  3.3

     negative rho (up, down):  1.309E-01 0.000E+00

     total cpu time spent up to now is     1999.0 secs

     total energy              =   -1525.17262607 Ry
     estimated scf accuracy    <       0.00000058 Ry

     iteration # 28     ecut=    60.00 Ry     beta= 0.30
     Davidson diagonalization with overlap
     ethr =  6.05E-10,  avg # of iterations =  3.8

     negative rho (up, down):  1.309E-01 0.000E+00

     total cpu time spent up to now is     2068.5 secs

     total energy              =   -1525.17262610 Ry
     estimated scf accuracy    <       0.00000020 Ry

     iteration # 29     ecut=    60.00 Ry     beta= 0.30
     Davidson diagonalization with overlap
     ethr =  2.11E-10,  avg # of iterations =  4.0

     negative rho (up, down):  1.309E-01 0.000E+00

     total cpu time spent up to now is     2143.9 secs

     total energy              =   -1525.17262613 Ry
     estimated scf accuracy    <       0.00000003 Ry

     iteration # 30     ecut=    60.00 Ry     beta= 0.30
     Davidson diagonalization with overlap
     ethr =  3.51E-11,  avg # of iterations =  2.1

     negative rho (up, down):  1.309E-01 0.000E+00

     total cpu time spent up to now is     2214.2 secs

     total energy              =   -1525.17262612 Ry
     estimated scf accuracy    <       0.00000002 Ry

     iteration # 31     ecut=    60.00 Ry     beta= 0.30
     Davidson diagonalization with overlap
     ethr =  2.52E-11,  avg # of iterations =  3.9

     negative rho (up, down):  1.309E-01 0.000E+00

     total cpu time spent up to now is     2295.4 secs

     total energy              =   -1525.17262613 Ry
     estimated scf accuracy    <          6.6E-09 Ry

     iteration # 32     ecut=    60.00 Ry     beta= 0.30
     Davidson diagonalization with overlap
     ethr =  6.89E-12,  avg # of iterations =  1.1

     negative rho (up, down):  1.309E-01 0.000E+00

     total cpu time spent up to now is     2351.6 secs

     total energy              =   -1525.17262613 Ry
     estimated scf accuracy    <          1.3E-09 Ry

     iteration # 33     ecut=    60.00 Ry     beta= 0.30
     Davidson diagonalization with overlap
     ethr =  1.41E-12,  avg # of iterations =  4.8

     negative rho (up, down):  1.309E-01 0.000E+00

     total cpu time spent up to now is     2455.0 secs

     total energy              =   -1525.17262613 Ry
     estimated scf accuracy    <          5.6E-09 Ry

     iteration # 34     ecut=    60.00 Ry     beta= 0.30
     Davidson diagonalization with overlap
     ethr =  1.41E-12,  avg # of iterations =  4.4

     negative rho (up, down):  1.309E-01 0.000E+00

     total cpu time spent up to now is     2547.8 secs

     End of self-consistent calculation

          k = 0.0000 0.0000 0.0000 ( 10897 PWs)   bands (ev):

   -67.2686 -67.2684 -31.7220 -31.7220 -31.7204 -31.7204 -31.7115 -31.7044
   -18.5147 -18.4343 -10.6154 -10.2630 -10.1336  -9.9648  -9.9648  -9.9281
    -9.8412  -9.8412  -3.7884  -3.7884  -3.7725  -3.5765  -3.5765  -3.5651
     2.3161   2.4235   2.4235   2.5276   2.5424   2.8914   3.0135   3.0801
     3.0801   3.1107   3.2779   3.2856   4.5187   4.6699   4.6699   4.9824
     5.0208   5.0208   5.0675   5.3799   5.3799   5.6151   5.8551   5.8551

          k = 0.3320 0.3320 0.0000 ( 10857 PWs)   bands (ev):

   -67.2685 -67.2685 -31.7220 -31.7218 -31.7209 -31.7207 -31.7102 -31.7053
   -18.5008 -18.4450 -10.6227 -10.3246 -10.0814  -9.9705  -9.9684  -9.8963
    -9.8787  -9.8247  -3.7920  -3.7575  -3.7446  -3.6173  -3.5799  -3.5666
     2.2520   2.3122   2.5214   2.6125   2.6799   2.8472   2.8907   3.0508
     3.0773   3.2111   3.2486   3.5481   4.3703   4.5105   4.6033   4.9162
     5.1176   5.1257   5.1686   5.4583   5.5018   5.5077   5.5604   5.7648

          k =-0.6640-0.6640 0.0000 ( 10838 PWs)   bands (ev):

   -67.2685 -67.2685 -31.7218 -31.7216 -31.7213 -31.7212 -31.7075 -31.7075
   -18.4720 -18.4720 -10.4698 -10.4698  -9.9981  -9.9978  -9.9229  -9.9227
    -9.9015  -9.9013  -3.7598  -3.7595  -3.7039  -3.7039  -3.5878  -3.5874
     2.4325   2.4328   2.5339   2.5342   2.7767   2.7769   2.9591   2.9604
     3.1040   3.1044   3.4722   3.4723   4.4579   4.4581   4.6564   4.6568
     5.1807   5.1812   5.2825   5.2829   5.5286   5.5287   5.6048   5.6048

          k = 0.3320-0.0000 0.1477 ( 10833 PWs)   bands (ev):

   -67.2685 -67.2684 -31.7223 -31.7220 -31.7207 -31.7201 -31.7106 -31.7051
   -18.5049 -18.4420 -10.6330 -10.3419 -10.0757  -9.9627  -9.9580  -9.9164
    -9.8403  -9.8291  -3.8020  -3.7532  -3.7424  -3.5999  -3.5976  -3.5558
     2.2402   2.2919   2.3894   2.6150   2.7897   2.8303   2.9389   2.9862
     3.0493   3.1311   3.3318   3.5429   4.4090   4.4649   4.6090   4.8873
     5.0607   5.1913   5.3064   5.3232   5.3781   5.5766   5.7254   5.7966

          k = 0.6640 0.3320 0.1477 ( 10836 PWs)   bands (ev):

   -67.2685 -67.2685 -31.7223 -31.7218 -31.7211 -31.7204 -31.7089 -31.7064
   -18.4859 -18.4586 -10.5776 -10.4216 -10.0123  -9.9875  -9.9642  -9.8788
    -9.8707  -9.8603  -3.7921  -3.7316  -3.7120  -3.6534  -3.6151  -3.5638
     2.2621   2.3123   2.5152   2.5697   2.7185   2.7646   2.9687   3.0349
     3.1093   3.1748   3.3883   3.5952   4.4085   4.5504   4.6628   4.8492
     4.9356   5.0179   5.1709   5.3910   5.4894   5.5461   5.6930   5.7283

          k =-0.3320-0.6640 0.1477 ( 10836 PWs)   bands (ev):

   -67.2685 -67.2685 -31.7223 -31.7218 -31.7211 -31.7204 -31.7089 -31.7064
   -18.4859 -18.4585 -10.5934 -10.4010 -10.0166  -9.9931  -9.9272  -9.8985
    -9.8809  -9.8626  -3.7920  -3.7310  -3.6993  -3.6735  -3.6101  -3.5626
     2.2002   2.4236   2.5397   2.6535   2.7035   2.7951   2.9477   2.9707
     3.0360   3.1410   3.3248   3.6943   4.2087   4.5576   4.5821   4.9427
     5.0588   5.1826   5.2565   5.3417   5.4828   5.5410   5.5955   5.6719

          k =-0.0000-0.3320 0.1477 ( 10833 PWs)   bands (ev):

   -67.2685 -67.2684 -31.7223 -31.7220 -31.7207 -31.7201 -31.7106 -31.7051
   -18.5049 -18.4420 -10.6330 -10.3419 -10.0757  -9.9627  -9.9580  -9.9164
    -9.8403  -9.8291  -3.8020  -3.7532  -3.7424  -3.5999  -3.5976  -3.5558
     2.2402   2.2919   2.3894   2.6150   2.7897   2.8303   2.9389   2.9862
     3.0493   3.1311   3.3318   3.5429   4.4090   4.4649   4.6090   4.8873
     5.0607   5.1913   5.3064   5.3232   5.3781   5.5766   5.7254   5.7966

          k =-0.6640 0.0000-0.2954 ( 10818 PWs)   bands (ev):

   -67.2685 -67.2685 -31.7225 -31.7220 -31.7210 -31.7199 -31.7095 -31.7060
   -18.4918 -18.4531 -10.6406 -10.4140 -10.0032 -10.0001  -9.9600  -9.8623
    -9.8487  -9.8333  -3.8135  -3.6963  -3.6701  -3.6644  -3.6459  -3.5438
     2.2030   2.2304   2.4135   2.6230   2.7105   2.8339   2.8984   2.9514
     3.1428   3.1662   3.4422   3.6858   4.2720   4.4909   4.7269   4.8005
     4.8596   5.2317   5.2991   5.3960   5.4463   5.4906   5.6710   5.7388

          k =-0.3320 0.3320-0.2954 ( 10836 PWs)   bands (ev):

   -67.2685 -67.2685 -31.7224 -31.7222 -31.7205 -31.7202 -31.7095 -31.7060
   -18.4926 -18.4531 -10.6040 -10.4100 -10.0324  -9.9670  -9.9381  -9.9129
    -9.8717  -9.8270  -3.7815  -3.7676  -3.6874  -3.6588  -3.6103  -3.5557
     2.2392   2.3301   2.4885   2.5776   2.7080   2.7702   2.9269   2.9848
     3.1067   3.1613   3.3617   3.6476   4.3277   4.4952   4.5918   4.9444
     4.9942   5.0430   5.2650   5.4375   5.4905   5.5269   5.7002   5.7455

          k =-1.3279-0.6640-0.2954 ( 10818 PWs)   bands (ev):

   -67.2685 -67.2685 -31.7225 -31.7220 -31.7210 -31.7199 -31.7095 -31.7060
   -18.4918 -18.4531 -10.6406 -10.4140 -10.0032 -10.0001  -9.9600  -9.8623
    -9.8487  -9.8333  -3.8135  -3.6963  -3.6701  -3.6644  -3.6459  -3.5438
     2.2030   2.2304   2.4135   2.6230   2.7105   2.8339   2.8984   2.9514
     3.1428   3.1662   3.4422   3.6858   4.2720   4.4909   4.7269   4.8005
     4.8596   5.2317   5.2991   5.3960   5.4463   5.4906   5.6710   5.7388

          k = 0.0000 0.3320 0.1477 ( 10833 PWs)   bands (ev):

   -67.2685 -67.2684 -31.7223 -31.7220 -31.7207 -31.7201 -31.7106 -31.7051
   -18.5049 -18.4420 -10.6330 -10.3419 -10.0757  -9.9627  -9.9580  -9.9164
    -9.8403  -9.8291  -3.8020  -3.7532  -3.7424  -3.5999  -3.5976  -3.5558
     2.2402   2.2919   2.3894   2.6150   2.7897   2.8303   2.9389   2.9862
     3.0493   3.1311   3.3318   3.5429   4.4090   4.4649   4.6090   4.8873
     5.0607   5.1913   5.3064   5.3232   5.3781   5.5766   5.7254   5.7966

          k = 0.3320 0.6640 0.1477 ( 10836 PWs)   bands (ev):

   -67.2685 -67.2685 -31.7223 -31.7218 -31.7211 -31.7204 -31.7089 -31.7064
   -18.4859 -18.4585 -10.5934 -10.4010 -10.0166  -9.9931  -9.9272  -9.8985
    -9.8809  -9.8626  -3.7920  -3.7310  -3.6993  -3.6735  -3.6101  -3.5626
     2.2002   2.4236   2.5397   2.6535   2.7035   2.7951   2.9477   2.9707
     3.0360   3.1410   3.3248   3.6943   4.2087   4.5576   4.5821   4.9427
     5.0588   5.1826   5.2565   5.3417   5.4828   5.5410   5.5955   5.6719

          k =-0.6640-0.3320 0.1477 ( 10836 PWs)   bands (ev):

   -67.2685 -67.2685 -31.7223 -31.7218 -31.7211 -31.7204 -31.7089 -31.7064
   -18.4859 -18.4586 -10.5776 -10.4216 -10.0123  -9.9875  -9.9642  -9.8788
    -9.8707  -9.8603  -3.7921  -3.7316  -3.7120  -3.6534  -3.6151  -3.5638
     2.2621   2.3123   2.5152   2.5697   2.7185   2.7646   2.9687   3.0349
     3.1093   3.1748   3.3883   3.5952   4.4085   4.5504   4.6628   4.8492
     4.9356   5.0179   5.1709   5.3910   5.4894   5.5461   5.6930   5.7283

          k =-0.3320 0.0000 0.1477 ( 10833 PWs)   bands (ev):

   -67.2685 -67.2684 -31.7223 -31.7220 -31.7207 -31.7201 -31.7106 -31.7051
   -18.5049 -18.4420 -10.6330 -10.3419 -10.0757  -9.9627  -9.9580  -9.9164
    -9.8403  -9.8291  -3.8020  -3.7532  -3.7424  -3.5999  -3.5976  -3.5558
     2.2402   2.2919   2.3894   2.6150   2.7897   2.8303   2.9389   2.9862
     3.0493   3.1311   3.3318   3.5429   4.4090   4.4649   4.6090   4.8873
     5.0607   5.1913   5.3064   5.3232   5.3781   5.5766   5.7254   5.7966

          k = 0.3320 0.3320 0.2954 ( 10836 PWs)   bands (ev):

   -67.2685 -67.2685 -31.7224 -31.7222 -31.7205 -31.7202 -31.7095 -31.7060
   -18.4926 -18.4531 -10.6040 -10.4100 -10.0324  -9.9670  -9.9381  -9.9129
    -9.8717  -9.8270  -3.7815  -3.7676  -3.6874  -3.6588  -3.6103  -3.5557
     2.2392   2.3301   2.4885   2.5776   2.7080   2.7702   2.9269   2.9848
     3.1067   3.1613   3.3617   3.6476   4.3277   4.4952   4.5918   4.9444
     4.9942   5.0430   5.2650   5.4375   5.4905   5.5269   5.7002   5.7455

          k = 0.6640 0.6640 0.2954 ( 10820 PWs)   bands (ev):

   -67.2685 -67.2685 -31.7217 -31.7217 -31.7213 -31.7213 -31.7075 -31.7075
   -18.4720 -18.4720 -10.4700 -10.4700  -9.9822  -9.9822  -9.9543  -9.9543
    -9.8855  -9.8855  -3.7598  -3.7598  -3.7036  -3.7036  -3.5878  -3.5878
     2.4030   2.4030   2.6260   2.6260   2.6940   2.6940   3.0004   3.0004
     3.0801   3.0801   3.4790   3.4790   4.3807   4.3807   4.8252   4.8252
     5.0278   5.0278   5.3416   5.3416   5.5204   5.5204   5.6132   5.6132

          k =-0.3320-0.3320 0.2954 ( 10836 PWs)   bands (ev):

   -67.2685 -67.2685 -31.7224 -31.7222 -31.7205 -31.7202 -31.7095 -31.7060
   -18.4926 -18.4531 -10.6040 -10.4100 -10.0324  -9.9670  -9.9381  -9.9129
    -9.8717  -9.8270  -3.7815  -3.7676  -3.6874  -3.6588  -3.6103  -3.5557
     2.2392   2.3301   2.4885   2.5776   2.7080   2.7702   2.9269   2.9848
     3.1067   3.1613   3.3617   3.6476   4.3277   4.4952   4.5918   4.9444
     4.9942   5.0430   5.2650   5.4375   5.4905   5.5269   5.7002   5.7455

          k = 0.0000 0.0000 0.2954 ( 10850 PWs)   bands (ev):

   -67.2685 -67.2685 -31.7226 -31.7225 -31.7198 -31.7197 -31.7105 -31.7055
   -18.5028 -18.4460 -10.6030 -10.4025 -10.0122  -9.9760  -9.9758  -9.9157
    -9.8292  -9.8291  -3.7788  -3.7786  -3.7407  -3.5931  -3.5923  -3.5921
     2.3642   2.3771   2.4958   2.5204   2.5205   2.8295   2.8414   3.0186
     3.0192   3.0637   3.4346   3.5974   4.4494   4.4497   4.4955   4.7793
     5.1733   5.1737   5.2204   5.4439   5.4449   5.6671   5.8252   5.8254

          k =-0.6640 0.3320-0.1477 ( 10836 PWs)   bands (ev):

   -67.2685 -67.2685 -31.7223 -31.7218 -31.7211 -31.7204 -31.7089 -31.7064
   -18.4859 -18.4585 -10.5934 -10.4010 -10.0166  -9.9931  -9.9272  -9.8985
    -9.8809  -9.8626  -3.7920  -3.7310  -3.6993  -3.6735  -3.6101  -3.5626
     2.2002   2.4236   2.5397   2.6535   2.7035   2.7951   2.9477   2.9707
     3.0360   3.1410   3.3248   3.6943   4.2087   4.5576   4.5821   4.9427
     5.0588   5.1826   5.2565   5.3417   5.4828   5.5410   5.5955   5.6719

          k =-0.3320 0.6640-0.1477 ( 10836 PWs)   bands (ev):

   -67.2685 -67.2685 -31.7223 -31.7218 -31.7211 -31.7204 -31.7089 -31.7064
   -18.4859 -18.4586 -10.5776 -10.4216 -10.0123  -9.9875  -9.9642  -9.8788
    -9.8707  -9.8603  -3.7921  -3.7316  -3.7120  -3.6534  -3.6151  -3.5638
     2.2621   2.3123   2.5152   2.5697   2.7185   2.7646   2.9687   3.0349
     3.1093   3.1748   3.3883   3.5952   4.4085   4.5504   4.6628   4.8492
     4.9356   5.0179   5.1709   5.3910   5.4894   5.5461   5.6930   5.7283

          k =-1.3279-0.3320-0.1477 ( 10811 PWs)   bands (ev):

   -67.2685 -67.2685 -31.7228 -31.7226 -31.7200 -31.7196 -31.7091 -31.7066
   -18.4873 -18.4594 -10.6013 -10.4726  -9.9948  -9.9741  -9.9508  -9.8995
    -9.8306  -9.8248  -3.7907  -3.7362  -3.6875  -3.6552  -3.6179  -3.5711
     2.2039   2.3946   2.4844   2.5389   2.6255   2.6583   2.9203   2.9610
     3.0705   3.1857   3.4781   3.7367   4.2418   4.4572   4.5850   4.7496
     5.0468   5.0684   5.3313   5.5012   5.5759   5.6041   5.6664   5.8019

          k =-0.9959 0.0000-0.1477 ( 10811 PWs)   bands (ev):

   -67.2685 -67.2685 -31.7228 -31.7226 -31.7200 -31.7196 -31.7091 -31.7066
   -18.4873 -18.4594 -10.6013 -10.4726  -9.9948  -9.9741  -9.9508  -9.8995
    -9.8306  -9.8248  -3.7907  -3.7362  -3.6875  -3.6552  -3.6179  -3.5711
     2.2039   2.3946   2.4844   2.5389   2.6255   2.6583   2.9203   2.9610
     3.0705   3.1857   3.4781   3.7367   4.2418   4.4572   4.5850   4.7496
     5.0468   5.0684   5.3313   5.5012   5.5759   5.6041   5.6664   5.8019

          k =-0.3320 0.3320 0.0000 ( 10857 PWs)   bands (ev):

   -67.2685 -67.2685 -31.7220 -31.7218 -31.7209 -31.7207 -31.7102 -31.7053
   -18.5008 -18.4450 -10.6227 -10.3246 -10.0814  -9.9705  -9.9684  -9.8963
    -9.8787  -9.8247  -3.7920  -3.7575  -3.7446  -3.6173  -3.5799  -3.5666
     2.2520   2.3122   2.5214   2.6125   2.6799   2.8472   2.8907   3.0508
     3.0773   3.2111   3.2486   3.5481   4.3703   4.5105   4.6033   4.9162
     5.1176   5.1257   5.1686   5.4583   5.5018   5.5077   5.5604   5.7648

          k = 0.0000 0.6640 0.0000 ( 10835 PWs)   bands (ev):

   -67.2685 -67.2685 -31.7225 -31.7220 -31.7209 -31.7199 -31.7095 -31.7060
   -18.4918 -18.4531 -10.6423 -10.4098 -10.0289  -9.9813  -9.9553  -9.8572
    -9.8538  -9.8338  -3.8055  -3.7225  -3.6883  -3.6552  -3.5953  -3.5671
     2.0807   2.3547   2.4356   2.6500   2.7449   2.7723   2.9460   2.9787
     2.9915   3.2633   3.3816   3.6999   4.1730   4.6463   4.6780   4.8714
     4.9583   4.9901   5.3187   5.3748   5.4043   5.6105   5.6989   5.7030

          k =-0.9959-0.3320 0.0000 ( 10818 PWs)   bands (ev):

   -67.2685 -67.2685 -31.7227 -31.7226 -31.7201 -31.7200 -31.7078 -31.7078
   -18.4728 -18.4727 -10.5454 -10.5196  -9.9901  -9.9604  -9.9353  -9.9099
    -9.8682  -9.8297  -3.7615  -3.7555  -3.6968  -3.6628  -3.6031  -3.5853
     2.2445   2.2947   2.5149   2.5607   2.7097   2.7299   2.8615   2.9941
     3.0400   3.2340   3.4867   3.7049   4.2794   4.4926   4.6574   4.6621
     4.9685   5.0910   5.3174   5.4618   5.5311   5.5791   5.7285   5.7316

          k =-0.6640 0.0000 0.0000 ( 10835 PWs)   bands (ev):

   -67.2685 -67.2685 -31.7225 -31.7220 -31.7209 -31.7199 -31.7095 -31.7060
   -18.4918 -18.4531 -10.6423 -10.4098 -10.0289  -9.9813  -9.9553  -9.8572
    -9.8538  -9.8338  -3.8055  -3.7225  -3.6883  -3.6552  -3.5953  -3.5671
     2.0807   2.3547   2.4356   2.6500   2.7449   2.7723   2.9460   2.9787
     2.9915   3.2633   3.3816   3.6999   4.1730   4.6463   4.6780   4.8714
     4.9583   4.9901   5.3187   5.3748   5.4043   5.6105   5.6989   5.7030

          k =-0.0000-0.6640-0.2954 ( 10818 PWs)   bands (ev):

   -67.2685 -67.2685 -31.7225 -31.7220 -31.7210 -31.7199 -31.7095 -31.7060
   -18.4918 -18.4531 -10.6406 -10.4140 -10.0032 -10.0001  -9.9600  -9.8623
    -9.8487  -9.8333  -3.8135  -3.6963  -3.6701  -3.6644  -3.6459  -3.5438
     2.2030   2.2304   2.4135   2.6230   2.7105   2.8339   2.8984   2.9514
     3.1428   3.1662   3.4422   3.6858   4.2720   4.4909   4.7269   4.8005
     4.8596   5.2317   5.2991   5.3960   5.4463   5.4906   5.6710   5.7388

          k = 0.3320-0.3320-0.2954 ( 10836 PWs)   bands (ev):

   -67.2685 -67.2685 -31.7224 -31.7222 -31.7205 -31.7202 -31.7095 -31.7060
   -18.4926 -18.4531 -10.6040 -10.4100 -10.0324  -9.9670  -9.9381  -9.9129
    -9.8717  -9.8270  -3.7815  -3.7676  -3.6874  -3.6588  -3.6103  -3.5557
     2.2392   2.3301   2.4885   2.5776   2.7080   2.7702   2.9269   2.9848
     3.1067   3.1613   3.3617   3.6476   4.3277   4.4952   4.5918   4.9444
     4.9942   5.0430   5.2650   5.4375   5.4905   5.5269   5.7002   5.7455

          k =-0.6640-1.3279-0.2954 ( 10818 PWs)   bands (ev):

   -67.2685 -67.2685 -31.7225 -31.7220 -31.7210 -31.7199 -31.7095 -31.7060
   -18.4918 -18.4531 -10.6406 -10.4140 -10.0032 -10.0001  -9.9600  -9.8623
    -9.8487  -9.8333  -3.8135  -3.6963  -3.6701  -3.6644  -3.6459  -3.5438
     2.2030   2.2304   2.4135   2.6230   2.7105   2.8339   2.8984   2.9514
     3.1428   3.1662   3.4422   3.6858   4.2720   4.4909   4.7269   4.8005
     4.8596   5.2317   5.2991   5.3960   5.4463   5.4906   5.6710   5.7388

          k = 0.3320-0.6640-0.1477 ( 10836 PWs)   bands (ev):

   -67.2685 -67.2685 -31.7223 -31.7218 -31.7211 -31.7204 -31.7089 -31.7064
   -18.4859 -18.4586 -10.5776 -10.4216 -10.0123  -9.9875  -9.9642  -9.8788
    -9.8707  -9.8603  -3.7921  -3.7316  -3.7120  -3.6534  -3.6151  -3.5638
     2.2621   2.3123   2.5152   2.5697   2.7185   2.7646   2.9687   3.0349
     3.1093   3.1748   3.3883   3.5952   4.4085   4.5504   4.6628   4.8492
     4.9356   5.0179   5.1709   5.3910   5.4894   5.5461   5.6930   5.7283

          k = 0.6640-0.3320-0.1477 ( 10836 PWs)   bands (ev):

   -67.2685 -67.2685 -31.7223 -31.7218 -31.7211 -31.7204 -31.7089 -31.7064
   -18.4859 -18.4585 -10.5934 -10.4010 -10.0166  -9.9931  -9.9272  -9.8985
    -9.8809  -9.8626  -3.7920  -3.7310  -3.6993  -3.6735  -3.6101  -3.5626
     2.2002   2.4236   2.5397   2.6535   2.7035   2.7951   2.9477   2.9707
     3.0360   3.1410   3.3248   3.6943   4.2087   4.5576   4.5821   4.9427
     5.0588   5.1826   5.2565   5.3417   5.4828   5.5410   5.5955   5.6719

          k =-0.3320-1.3279-0.1477 ( 10811 PWs)   bands (ev):

   -67.2685 -67.2685 -31.7228 -31.7226 -31.7200 -31.7196 -31.7091 -31.7066
   -18.4873 -18.4594 -10.6013 -10.4726  -9.9948  -9.9741  -9.9508  -9.8995
    -9.8306  -9.8248  -3.7907  -3.7362  -3.6875  -3.6552  -3.6179  -3.5711
     2.2039   2.3946   2.4844   2.5389   2.6255   2.6583   2.9203   2.9610
     3.0705   3.1857   3.4781   3.7367   4.2418   4.4572   4.5850   4.7496
     5.0468   5.0684   5.3313   5.5012   5.5759   5.6041   5.6664   5.8019

          k =-0.0000-0.9959-0.1477 ( 10811 PWs)   bands (ev):

   -67.2685 -67.2685 -31.7228 -31.7226 -31.7200 -31.7196 -31.7091 -31.7066
   -18.4873 -18.4594 -10.6013 -10.4726  -9.9948  -9.9741  -9.9508  -9.8995
    -9.8306  -9.8248  -3.7907  -3.7362  -3.6875  -3.6552  -3.6179  -3.5711
     2.2039   2.3946   2.4844   2.5389   2.6255   2.6583   2.9203   2.9610
     3.0705   3.1857   3.4781   3.7367   4.2418   4.4572   4.5850   4.7496
     5.0468   5.0684   5.3313   5.5012   5.5759   5.6041   5.6664   5.8019

          k =-0.6640-0.6640-0.5907 ( 10838 PWs)   bands (ev):

   -67.2685 -67.2685 -31.7218 -31.7216 -31.7213 -31.7212 -31.7075 -31.7075
   -18.4720 -18.4720 -10.4698 -10.4698  -9.9981  -9.9978  -9.9229  -9.9227
    -9.9015  -9.9013  -3.7598  -3.7595  -3.7039  -3.7039  -3.5878  -3.5874
     2.4325   2.4328   2.5339   2.5342   2.7767   2.7769   2.9591   2.9604
     3.1040   3.1044   3.4722   3.4723   4.4579   4.4581   4.6564   4.6568
     5.1807   5.1812   5.2825   5.2829   5.5286   5.5287   5.6048   5.6048

          k =-0.3320-0.3320-0.5907 ( 10818 PWs)   bands (ev):

   -67.2685 -67.2685 -31.7227 -31.7226 -31.7201 -31.7200 -31.7078 -31.7078
   -18.4728 -18.4727 -10.5454 -10.5196  -9.9901  -9.9604  -9.9353  -9.9099
    -9.8682  -9.8297  -3.7615  -3.7555  -3.6968  -3.6628  -3.6031  -3.5853
     2.2445   2.2947   2.5149   2.5607   2.7097   2.7299   2.8615   2.9941
     3.0400   3.2340   3.4867   3.7049   4.2794   4.4926   4.6574   4.6621
     4.9685   5.0910   5.3174   5.4618   5.5311   5.5791   5.7285   5.7316

          k =-1.3279-1.3279-0.5907 ( 10794 PWs)   bands (ev):

   -67.2685 -67.2685 -31.7231 -31.7229 -31.7194 -31.7193 -31.7080 -31.7080
   -18.4743 -18.4743 -10.5400 -10.5400  -9.9855  -9.9853  -9.9233  -9.9233
    -9.8187  -9.8186  -3.7673  -3.7670  -3.6651  -3.6651  -3.6100  -3.6096
     2.3310   2.3310   2.5448   2.5448   2.6654   2.6658   2.9106   2.9112
     2.9631   2.9631   3.7118   3.7118   4.3060   4.3064   4.4897   4.4897
     5.1991   5.1996   5.5543   5.5543   5.5981   5.5993   5.7541   5.7545

     highest occupied level (ev):     5.8551

!    total energy              =   -1525.17262613 Ry
     estimated scf accuracy    <          7.9E-11 Ry

     The total energy is the sum of the following terms:
     one-electron contribution =    -272.34644921 Ry
     hartree contribution      =     181.95097563 Ry
     xc contribution           =    -182.46066386 Ry
     ewald contribution        =    -426.24732763 Ry
     one-center paw contrib.   =    -826.06916105 Ry

     convergence has been achieved in  34 iterations

     negative rho (up, down):  1.309E-01 0.000E+00

     Forces acting on atoms (cartesian axes, Ry/au):

     atom    1 type  1   force =     0.00000038    0.00000038   -0.00006265
     atom    2 type  1   force =     0.00000043    0.00000029   -0.00006251
     atom    3 type  2   force =    -0.00000022   -0.00000011    0.00039837
     atom    4 type  2   force =    -0.00000034   -0.00000029    0.00039851
     atom    5 type  3   force =     0.00492258    0.01002090   -0.00716972
     atom    6 type  3   force =    -0.00492273   -0.01002150   -0.00717026
     atom    7 type  3   force =     0.00489579    0.01000317    0.00700195
     atom    8 type  3   force =     0.01002135   -0.00492263   -0.00717000
     atom    9 type  3   force =    -0.01000333    0.00489595    0.00700226
     atom   10 type  3   force =     0.01000325   -0.00489565    0.00700204
     atom   11 type  3   force =    -0.01002138    0.00492288   -0.00717026
     atom   12 type  3   force =    -0.00489577   -0.01000340    0.00700227

     Total force =     0.037375     Total SCF correction =     0.000011

     Writing output data file ./out/BaO4W.save/

     init_run     :     28.24s CPU     36.34s WALL (       1 calls)
     electrons    :   1980.78s CPU   2509.56s WALL (       1 calls)
     forces       :     13.68s CPU     17.30s WALL (       1 calls)

     Called by init_run:
     wfcinit      :     22.92s CPU     29.36s WALL (       1 calls)
     potinit      :      2.25s CPU      2.33s WALL (       1 calls)
     hinit0       :      1.87s CPU      3.17s WALL (       1 calls)

     Called by electrons:
     c_bands      :   1675.26s CPU   2120.35s WALL (      34 calls)
     sum_band     :    238.96s CPU    298.87s WALL (      34 calls)
     v_of_rho     :     13.52s CPU     17.61s WALL (      35 calls)
     newd         :     27.61s CPU     39.26s WALL (      35 calls)
     PAW_pot      :     22.75s CPU     29.54s WALL (      35 calls)
     mix_rho      :      2.46s CPU      3.28s WALL (      34 calls)

     Called by c_bands:
     init_us_2    :      5.69s CPU      7.42s WALL (    1260 calls)
     cegterg      :   1554.82s CPU   1970.35s WALL (     612 calls)

     Called by *egterg:
     cdiaghg      :     44.57s CPU     59.01s WALL (    2289 calls)
     h_psi        :    871.45s CPU   1121.20s WALL (    2307 calls)
     s_psi        :    152.61s CPU    196.50s WALL (    2307 calls)
     g_psi        :      1.19s CPU      1.61s WALL (    1677 calls)

     Called by h_psi:
     h_psi:calbec :    205.26s CPU    255.61s WALL (    2307 calls)
     vloc_psi     :    510.84s CPU    662.47s WALL (    2307 calls)
     add_vuspsi   :    154.25s CPU    201.69s WALL (    2307 calls)

     General routines
     calbec       :    299.29s CPU    369.79s WALL (    2991 calls)
     fft          :     18.13s CPU     22.36s WALL (     464 calls)
     ffts         :      0.60s CPU      0.73s WALL (      69 calls)
     fftw         :    557.91s CPU    721.22s WALL (  176904 calls)
     interpolate  :      1.18s CPU      1.43s WALL (      35 calls)

     Parallel routines
     fft_scatt_xy :     54.99s CPU     72.54s WALL (  177437 calls)
     fft_scatt_yz :    337.68s CPU    432.11s WALL (  177437 calls)

     PWSCF        :  33m44.43s CPU  42m46.09s WALL


   This run was terminated on:  19: 7: 7   3Jul2026            

=------------------------------------------------------------------------------=
   JOB DONE.
=------------------------------------------------------------------------------=
