
     Program DYNMAT v.6.7MaX starts on  5Jul2026 at 10:41:37 

     This program is part of the open-source Quantum ESPRESSO suite
     for quantum simulation of materials; please cite
         "P. Giannozzi et al., J. Phys.:Condens. Matter 21 395502 (2009);
         "P. Giannozzi et al., J. Phys.:Condens. Matter 29 465901 (2017);
          URL http://www.quantum-espresso.org", 
     in publications or presentations arising from this work. More details at
     http://www.quantum-espresso.org/quote

     Parallel version (MPI), running on     1 processors

     MPI processes distributed on     1 nodes

     Reading Dynamical Matrix from file BaMoO4.dyn
     ...Force constants read
     ...epsilon and Z* read
     A direction for q was not specified:TO-LO splitting will be absent
     Max |d(i,j)-d*(j,i)| =  0.005842
     Max |d(i,j)-d*(j,i)|/|d(i,j)|:   2.3445%

     Polarizability (A^3 units)
     multiply by 0.545477 for Clausius-Mossotti correction
        40.416231   -0.056415   -0.092677
        -0.035175   40.401684   -0.119092
        -0.102462   -0.110390   40.211107

     IR activities are in (D/A)^2/amu units

# mode   [cm-1]    [THz]      IR
    1     -5.78   -0.1732    0.0017
    2     -4.85   -0.1454    0.0015
    3     -1.87   -0.0562    0.0002
    4     72.81    2.1828    0.0000
    5     79.64    2.3875    0.0000
    6     83.59    2.5060    0.0000
    7     85.28    2.5565    1.2684
    8     86.50    2.5933    1.5058
    9    102.50    3.0728    0.0000
   10    103.91    3.1150    0.0000
   11    119.28    3.5761    4.3603
   12    121.20    3.6334    0.0000
   13    130.64    3.9166    5.2840
   14    131.73    3.9492    5.0222
   15    134.38    4.0286    0.0000
   16    176.00    5.2765    0.0000
   17    177.59    5.3242    0.0000
   18    191.12    5.7296    0.0024
   19    268.28    8.0427    3.9606
   20    299.69    8.9846    2.6315
   21    302.24    9.0608    2.5702
   22    303.86    9.1095    0.0000
   23    309.41    9.2758    0.0000
   24    326.11    9.7764    0.0000
   25    336.66   10.0929    0.0000
   26    338.64   10.1523    0.0000
   27    359.22   10.7690    1.3968
   28    360.34   10.8026    0.1808
   29    811.21   24.3194    0.0001
   30    811.62   24.3318    0.0001
   31    816.13   24.4671   46.9134
   32    826.50   24.7778   49.4277
   33    826.93   24.7906   49.3765
   34    850.75   25.5049    0.0000
   35    898.48   26.9357    0.0000
   36    900.09   26.9841    0.0024

     DYNMAT       :      0.01s CPU      0.02s WALL


   This run was terminated on:  10:41:37   5Jul2026            

=------------------------------------------------------------------------------=
   JOB DONE.
=------------------------------------------------------------------------------=
    -0.249204   0.000000   )
 ( -0.132832   0.000000     0.058960  -0.000000    -0.249202   0.000000   )
 ( -0.127883   0.000000     0.067000  -0.000000    -0.249590   0.000000   )
 ( -0.127249   0.000000     0.067096  -0.000000    -0.250292   0.000000   )
 ( -0.128940   0.000000     0.066790  -0.000000    -0.250828   0.000000   )
     freq (    4) =       2.182777 [THz] =      72.809608 [cm-1]
 ( -0.074192   0.000000    -0.046486   0.000000     0.211375   0.000000   )
 (  0.074178   0.000000     0.046468   0.000000    -0.211384   0.000000   )
 ( -0.095349   0.000000    -0.220242   0.000000    -0.203354   0.000000   )
 (  0.095382   0.000000     0.220247   0.000000     0.203341   0.000000   )
 (  0.099618   0.000000    -0.035271   0.000000     0.110295   0.000000   )
 ( -0.039627   0.000000    -0.261174   0.000000     0.008902   0.000000   )
 ( -0.035060   0.000000    -0.292485   0.000000    -0.238807   0.000000   )
 (  0.115776   0.000000     0.206203   0.000000     0.236326   0.000000   )
 ( -0.115686   0.000000    -0.206105   0.000000    -0.236374   0.000000   )
 (  0.035044   0.000000     0.292368   0.000000     0.238733   0.000000   )
 ( -0.099539   0.000000     0.035362   0.000000    -0.110395   0.000000   )
 (  0.039702   0.000000     0.261144   0.000000    -0.008783   0.000000   )
     freq (    5) =       2.387488 [THz] =      79.638026 [cm-1]
 ( -0.153590   0.000000     0.256915   0.000000    -0.048898   0.000000   )
 (  0.153669   0.000000    -0.256955   0.000000     0.048878   0.000000   )
 ( -0.191005   0.000000     0.018426   0.000000     0.008835   0.000000   )
 (  0.190952   0.000000    -0.018393   0.000000    -0.008821   0.000000   )
 (  0.276879   0.000000    -0.025158   0.000000    -0.254007   0.000000   )
 ( -0.118483   0.000000    -0.004526   0.000000    -0.207960   0.000000   )
 (  0.085854   0.000000     0.125920   0.000000     0.078031   0.000000   )
 (  0.363839   0.000000     0.083521   0.000000     0.058353   0.000000   )
 ( -0.363914   0.000000    -0.083695   0.000000    -0.058161   0.000000   )
 ( -0.085880   0.000000    -0.125496   0.000000    -0.077830   0.000000   )
 ( -0.277003   0.000000     0.024901   0.000000     0.254110   0.000000   )
 (  0.118178   0.000000     0.004717   0.000000     0.207595   0.000000   )
     freq (    6) =       2.505974 [THz] =      83.590302 [cm-1]
 (  0.268628   0.000000     0.116734   0.000000    -0.007162   0.000000   )
 ( -0.268394   0.000000    -0.116834   0.000000     0.007136   0.000000   )
 ( -0.061775   0.000000     0.049213   0.000000    -0.239656   0.000000   )
 (  0.061634   0.000000    -0.049111   0.000000     0.239711   0.000000   )
 (  0.070666   0.000000     0.125660   0.000000     0.278193   0.000000   )
 ( -0.215669   0.000000     0.124706   0.000000    -0.320342   0.000000   )
 ( -0.009854   0.000000     0.248932   0.000000    -0.131382   0.000000   )
 ( -0.086186   0.000000     0.036142   0.000000     0.020045   0.000000   )
 (  0.086067   0.000000    -0.036615   0.000000    -0.019437   0.000000   )
 (  0.009685   0.000000    -0.247640   0.000000     0.132005   0.000000   )
 ( -0.070973   0.000000    -0.126405   0.000000    -0.278000   0.000000   )
 (  0.214747   0.000000    -0.124120   0.000000     0.319321   0.000000   )
     freq (    7) =       2.556521 [THz] =      85.276370 [cm-1]
 (  0.067042   0.000000     0.012318   0.000000    -0.026395   0.000000   )
 (  0.067303   0.000000     0.012622   0.000000    -0.026480   0.000000   )
 ( -0.044806   0.000000     0.001325   0.000000     0.019367   0.000000   )
 ( -0.044899   0.000000     0.001397   0.000000     0.019133   0.000000   )
 ( -0.155937   0.000000    -0.202346   0.000000     0.236852   0.000000   )
 ( -0.157968   0.000000     0.087217   0.000000    -0.319144   0.000000   )
 (  0.060250   0.000000     0.304598   0.000000     0.170982   0.000000   )
 ( -0.195137   0.000000    -0.243033   0.000000     0.116048   0.000000   )
 ( -0.195114   0.000000    -0.242945   0.000000     0.116069   0.000000   )
 (  0.060237   0.000000     0.304884   0.000000     0.170868   0.000000   )
 ( -0.155823   0.000000    -0.202275   0.000000     0.237071   0.000000   )
 ( -0.158142   0.000000     0.087332   0.000000    -0.319520   0.000000   )
     freq (    8) =       2.593336 [THz] =      86.504370 [cm-1]
 ( -0.024675   0.000000     0.077640   0.000000    -0.024748   0.000000   )
 ( -0.024841   0.000000     0.077532   0.000000    -0.024739   0.000000   )
 (  0.009384   0.000000    -0.054430   0.000000     0.007668   0.000000   )
 (  0.009488   0.000000    -0.054449   0.000000     0.007794   0.000000   )
 ( -0.094469   0.000000     0.098569   0.000000     0.326895   0.000000   )
 (  0.287586   0.000000    -0.194295   0.000000     0.044839   0.000000   )
 (  0.227975   0.000000    -0.229002   0.000000    -0.063108   0.000000   )
 ( -0.290117   0.000000    -0.149024   0.000000    -0.163675   0.000000   )
 ( -0.290171   0.000000    -0.149060   0.000000    -0.163698   0.000000   )
 (  0.227937   0.000000    -0.229160   0.000000    -0.063065   0.000000   )
 ( -0.094613   0.000000     0.098466   0.000000     0.326831   0.000000   )
 (  0.287785   0.000000    -0.194362   0.000000     0.045074   0.000000   )
     freq (    9) =       3.072785 [THz] =     102.497084 [cm-1]
 (  0.148783   0.000000    -0.152819   0.000000    -0.043539   0.000000   )
 ( -0.148814   0.000000     0.152765   0.000000     0.043524   0.000000   )
 ( -0.170069   0.000000    -0.106636   0.000000     0.123239   0.000000   )
 (  0.170090   0.000000     0.106661   0.000000    -0.123224   0.000000   )
 (  0.260795   0.000000     0.157299   0.000000    -0.325263   0.000000   )
 ( -0.213092   0.000000    -0.086260   0.000000    -0.072000   0.000000   )
 (  0.092762   0.000000    -0.023182   0.000000     0.183190   0.000000   )
 (  0.294645   0.000000     0.103316   0.000000    -0.021644   0.000000   )
 ( -0.294507   0.000000    -0.103200   0.000000     0.021674   0.000000   )
 ( -0.092824   0.000000     0.023176   0.000000    -0.183190   0.000000   )
 ( -0.260713   0.000000    -0.157277   0.000000     0.325121   0.000000   )
 (  0.213062   0.000000     0.086308   0.000000     0.072082   0.000000   )
     freq (   10) =       3.115016 [THz] =     103.905758 [cm-1]
 (  0.115398   0.000000     0.151903   0.000000    -0.120449   0.000000   )
 ( -0.115317   0.000000    -0.151852   0.000000     0.120454   0.000000   )
 (  0.123651   0.000000    -0.193176   0.000000     0.035013   0.000000   )
 ( -0.123695   0.000000     0.193137   0.000000    -0.035023   0.000000   )
 ( -0.132215   0.000000    -0.079973   0.000000    -0.120627   0.000000   )
 (  0.283260   0.000000    -0.286478   0.000000     0.164378   0.000000   )
 (  0.056367   0.000000    -0.322196   0.000000    -0.022641   0.000000   )
 (  0.031075   0.000000     0.224245   0.000000     0.093094   0.000000   )
 ( -0.031152   0.000000    -0.224396   0.000000    -0.093031   0.000000   )
 ( -0.056402   0.000000     0.322317   0.000000     0.022711   0.000000   )
 (  0.132128   0.000000     0.079856   0.000000     0.120694   0.000000   )
 ( -0.283373   0.000000     0.286479   0.000000    -0.164514   0.000000   )
     freq (   11) =       3.576071 [THz] =     119.284878 [cm-1]
 ( -0.112857   0.000000    -0.125808   0.000000    -0.299931   0.000000   )
 ( -0.112890   0.000000    -0.125899   0.000000    -0.299992   0.000000   )
 (  0.107879   0.000000     0.116018   0.000000     0.274650   0.000000   )
 (  0.107803   0.000000     0.116021   0.000000     0.274599   0.000000   )
 (  0.116653   0.000000     0.048264   0.000000     0.245737   0.000000   )
 (  0.132730   0.000000     0.115912   0.000000     0.201670   0.000000   )
 (  0.048407   0.000000     0.059077   0.000000     0.250899   0.000000   )
 (  0.038906   0.000000     0.122382   0.000000     0.218221   0.000000   )
 (  0.038951   0.000000     0.122399   0.000000     0.218235   0.000000   )
 (  0.048402   0.000000     0.059141   0.000000     0.250871   0.000000   )
 (  0.116751   0.000000     0.048294   0.000000     0.245762   0.000000   )
 (  0.132601   0.000000     0.115933   0.000000     0.201591   0.000000   )
     freq (   12) =       3.633438 [THz] =     121.198455 [cm-1]
 ( -0.151305   0.000000    -0.179094   0.000000    -0.403911   0.000000   )
 (  0.151284   0.000000     0.179029   0.000000     0.403838   0.000000   )
 ( -0.054162   0.000000    -0.044688   0.000000    -0.242683   0.000000   )
 (  0.054193   0.000000     0.044758   0.000000     0.242742   0.000000   )
 (  0.068829   0.000000    -0.113003   0.000000     0.257014   0.000000   )
 ( -0.050209   0.000000    -0.093525   0.000000    -0.111364   0.000000   )
 ( -0.066885   0.000000     0.031787   0.000000    -0.244074   0.000000   )
 ( -0.015055   0.000000     0.176843   0.000000     0.119593   0.000000   )
 (  0.014972   0.000000    -0.176810   0.000000    -0.119594   0.000000   )
 (  0.066942   0.000000    -0.031770   0.000000     0.244106   0.000000   )
 ( -0.068819   0.000000     0.113123   0.000000    -0.256878   0.000000   )
 (  0.050337   0.000000     0.093553   0.000000     0.111406   0.000000   )
     freq (   13) =       3.916599 [THz] =     130.643687 [cm-1]
 (  0.235114   0.000000    -0.012020   0.000000    -0.085580   0.000000   )
 (  0.235113   0.000000    -0.012013   0.000000    -0.085586   0.000000   )
 ( -0.208215   0.000000     0.006820   0.000000     0.076236   0.000000   )
 ( -0.208181   0.000000     0.006792   0.000000     0.076234   0.000000   )
 ( -0.168051   0.000000     0.202163   0.000000    -0.026952   0.000000   )
 ( -0.106382   0.000000    -0.072698   0.000000     0.321941   0.000000   )
 ( -0.272551   0.000000    -0.236222   0.000000    -0.035639   0.000000   )
 ( -0.184095   0.000000     0.179017   0.000000    -0.026275   0.000000   )
 ( -0.184072   0.000000     0.179123   0.000000    -0.026292   0.000000   )
 ( -0.272543   0.000000    -0.236177   0.000000    -0.035608   0.000000   )
 ( -0.168089   0.000000     0.202123   0.000000    -0.026963   0.000000   )
 ( -0.106284   0.000000    -0.072754   0.000000     0.321897   0.000000   )
     freq (   14) =       3.949171 [THz] =     131.730165 [cm-1]
 (  0.016462   0.000000    -0.222241   0.000000     0.087367   0.000000   )
 (  0.016440   0.000000    -0.222271   0.000000     0.087349   0.000000   )
 ( -0.018625   0.000000     0.199463   0.000000    -0.079611   0.000000   )
 ( -0.018662   0.000000     0.199475   0.000000    -0.079643   0.000000   )
 ( -0.107440   0.000000     0.310790   0.000000     0.166670   0.000000   )
 (  0.213402   0.000000     0.115504   0.000000    -0.112316   0.000000   )
 (  0.164087   0.000000     0.132629   0.000000    -0.125286   0.000000   )
 ( -0.272208   0.000000     0.111714   0.000000    -0.204961   0.000000   )
 ( -0.272177   0.000000     0.111780   0.000000    -0.205001   0.000000   )
 (  0.164033   0.000000     0.132732   0.000000    -0.125281   0.000000   )
 ( -0.107412   0.000000     0.310767   0.000000     0.166734   0.000000   )
 (  0.213377   0.000000     0.115514   0.000000    -0.112400   0.000000   )
     freq (   15) =       4.028619 [THz] =     134.380269 [cm-1]
 ( -0.019117   0.000000     0.019326   0.000000    -0.023116   0.000000   )
 (  0.019097   0.000000    -0.019310   0.000000     0.023116   0.000000   )
 (  0.032521   0.000000    -0.025959   0.000000    -0.017176   0.000000   )
 ( -0.032501   0.000000     0.025950   0.000000     0.017176   0.000000   )
 (  0.045196   0.000000     0.288982   0.000000    -0.122375   0.000000   )
 ( -0.290817   0.000000     0.109029   0.000000     0.094393   0.000000   )
 (  0.296757   0.000000    -0.208965   0.000000    -0.101892   0.000000   )
 ( -0.176588   0.000000    -0.293121   0.000000     0.177700   0.000000   )
 (  0.176656   0.000000     0.293137   0.000000    -0.177686   0.000000   )
 ( -0.296744   0.000000     0.208948   0.000000     0.101893   0.000000   )
 ( -0.045171   0.000000    -0.289022   0.000000     0.122356   0.000000   )
 (  0.290797   0.000000    -0.109017   0.000000    -0.094390   0.000000   )
     freq (   16) =       5.276496 [THz] =     176.004977 [cm-1]
 ( -0.054550   0.000000     0.022689   0.000000    -0.000669   0.000000   )
 (  0.054555   0.000000    -0.022696   0.000000     0.000669   0.000000   )
 (  0.017269   0.000000    -0.137181   0.000000     0.048600   0.000000   )
 ( -0.017273   0.000000     0.137184   0.000000    -0.048599   0.000000   )
 ( -0.089700   0.000000     0.344191   0.000000     0.206196   0.000000   )
 ( -0.159001   0.000000    -0.038449   0.000000    -0.182326   0.000000   )
 ( -0.045558   0.000000     0.163166   0.000000     0.196951   0.000000   )
 ( -0.250769   0.000000     0.180892   0.000000    -0.287955   0.000000   )
 (  0.250733   0.000000    -0.180907   0.000000     0.287947   0.000000   )
 (  0.045519   0.000000    -0.163143   0.000000    -0.196943   0.000000   )
 (  0.089712   0.000000    -0.344133   0.000000    -0.206221   0.000000   )
 (  0.159053   0.000000     0.038424   0.000000     0.182356   0.000000   )
     freq (   17) =       5.324154 [THz] =     177.594668 [cm-1]
 ( -0.019128   0.000000    -0.041823   0.000000     0.026632   0.000000   )
 (  0.019137   0.000000     0.041822   0.000000    -0.026636   0.000000   )
 (  0.145776   0.000000    -0.004620   0.000000    -0.054488   0.000000   )
 ( -0.145794   0.000000     0.004621   0.000000     0.054487   0.000000   )
 ( -0.025748   0.000000     0.016184   0.000000    -0.271636   0.000000   )
 (  0.131607   0.000000     0.031422   0.000000    -0.377470   0.000000   )
 (  0.352925   0.000000     0.227199   0.000000     0.066998   0.000000   )
 (  0.106148   0.000000     0.163559   0.000000     0.136811   0.000000   )
 ( -0.106105   0.000000    -0.163456   0.000000    -0.136852   0.000000   )
 ( -0.352882   0.000000    -0.227270   0.000000    -0.067030   0.000000   )
 (  0.025708   0.000000    -0.016184   0.000000     0.271688   0.000000   )
 ( -0.131654   0.000000    -0.031414   0.000000     0.377530   0.000000   )
     freq (   18) =       5.729579 [THz] =     191.118190 [cm-1]
 (  0.001412   0.000000    -0.002074   0.000000     0.000285   0.000000   )
 (  0.001412   0.000000    -0.002081   0.000000     0.000293   0.000000   )
 ( -0.001574   0.000000     0.005388   0.000000    -0.001186   0.000000   )
 ( -0.001553   0.000000     0.005403   0.000000    -0.001199   0.000000   )
 ( -0.124971   0.000000    -0.204865   0.000000     0.253342   0.000000   )
 ( -0.296762   0.000000     0.148936   0.000000    -0.032703   0.000000   )
 (  0.262154   0.000000    -0.228738   0.000000    -0.101498   0.000000   )
 (  0.168648   0.000000     0.302434   0.000000    -0.124996   0.000000   )
 (  0.168686   0.000000     0.302417   0.000000    -0.124931   0.000000   )
 (  0.262234   0.000000    -0.228713   0.000000    -0.101506   0.000000   )
 ( -0.124957   0.000000    -0.204882   0.000000     0.253266   0.000000   )
 ( -0.296749   0.000000     0.148955   0.000000    -0.032741   0.000000   )
     freq (   19) =       8.042703 [THz] =     268.275704 [cm-1]
 ( -0.004291   0.000000    -0.005330   0.000000    -0.012307   0.000000   )
 ( -0.004292   0.000000    -0.005330   0.000000    -0.012307   0.000000   )
 ( -0.044393   0.000000    -0.051264   0.000000    -0.098474   0.000000   )
 ( -0.044384   0.000000    -0.051264   0.000000    -0.098473   0.000000   )
 ( -0.182036   0.000000     0.061049   0.000000     0.278471   0.000000   )
 (  0.131816   0.000000    -0.174740   0.000000     0.262166   0.000000   )
 (  0.002471   0.000000     0.348251   0.000000     0.093820   0.000000   )
 (  0.327626   0.000000     0.114406   0.000000     0.062956   0.000000   )
 (  0.327627   0.000000     0.114423   0.000000     0.062944   0.000000   )
 (  0.002482   0.000000     0.348227   0.000000     0.093811   0.000000   )
 ( -0.182042   0.000000     0.061052   0.000000     0.278459   0.000000   )
 (  0.131825   0.000000    -0.174732   0.000000     0.262117   0.000000   )
     freq (   20) =       8.984624 [THz] =     299.694794 [cm-1]
 ( -0.004760   0.000000     0.002724   0.000000    -0.001296   0.000000   )
 ( -0.004761   0.000000     0.002721   0.000000    -0.001299   0.000000   )
 ( -0.001401   0.000000    -0.122999   0.000000     0.061243   0.000000   )
 ( -0.001395   0.000000    -0.122988   0.000000     0.061252   0.000000   )
 (  0.094071   0.000000     0.385990   0.000000    -0.059415   0.000000   )
 ( -0.136420   0.000000    -0.072393   0.000000    -0.264877   0.000000   )
 (  0.089640   0.000000     0.149400   0.000000     0.243565   0.000000   )
 ( -0.012484   0.000000     0.250609   0.000000    -0.270270   0.000000   )
 ( -0.012411   0.000000     0.250563   0.000000    -0.270203   0.000000   )
 (  0.089519   0.000000     0.149347   0.000000     0.243549   0.000000   )
 (  0.094062   0.000000     0.386148   0.000000    -0.059391   0.000000   )
 ( -0.136336   0.000000    -0.072398   0.000000    -0.264985   0.000000   )
     freq (   21) =       9.060836 [THz] =     302.236960 [cm-1]
 (  0.003704   0.000000     0.003504   0.000000    -0.003166   0.000000   )
 (  0.003705   0.000000     0.003504   0.000000    -0.003163   0.000000   )
 ( -0.129025   0.000000     0.023651   0.000000     0.044783   0.000000   )
 ( -0.129025   0.000000     0.023646   0.000000     0.044779   0.000000   )
 ( -0.064539   0.000000    -0.117991   0.000000    -0.273229   0.000000   )
 (  0.307283   0.000000    -0.148517   0.000000    -0.215344   0.000000   )
 (  0.370989   0.000000    -0.039368   0.000000     0.025640   0.000000   )
 (  0.124550   0.000000     0.146750   0.000000     0.219715   0.000000   )
 (  0.124296   0.000000     0.146739   0.000000     0.219522   0.000000   )
 (  0.370854   0.000000    -0.039547   0.000000     0.025528   0.000000   )
 ( -0.064464   0.000000    -0.118207   0.000000    -0.273501   0.000000   )
 (  0.307204   0.000000    -0.148470   0.000000    -0.215587   0.000000   )
     freq (   22) =       9.109546 [THz] =     303.861734 [cm-1]
 (  0.001242   0.000000     0.000673   0.000000     0.002207   0.000000   )
 ( -0.001241   0.000000    -0.000672   0.000000    -0.002209   0.000000   )
 (  0.000446   0.000000    -0.007021   0.000000    -0.001869   0.000000   )
 ( -0.000539   0.000000     0.007044   0.000000     0.001892   0.000000   )
 (  0.071147   0.000000    -0.284081   0.000000    -0.283254   0.000000   )
 ( -0.116704   0.000000     0.065128   0.000000    -0.286252   0.000000   )
 ( -0.118843   0.000000    -0.234928   0.000000    -0.130830   0.000000   )
 ( -0.291659   0.000000     0.016947   0.000000    -0.249669   0.000000   )
 (  0.291765   0.000000    -0.016863   0.000000     0.249854   0.000000   )
 (  0.119095   0.000000     0.234907   0.000000     0.130836   0.000000   )
 ( -0.071206   0.000000     0.283979   0.000000     0.283077   0.000000   )
 (  0.116936   0.000000    -0.065232   0.000000     0.286123   0.000000   )
     freq (   23) =       9.275781 [THz] =     309.406745 [cm-1]
 ( -0.003861   0.000000    -0.004279   0.000000    -0.008006   0.000000   )
 (  0.003859   0.000000     0.004281   0.000000     0.008005   0.000000   )
 (  0.009822   0.000000     0.019918   0.000000     0.021212   0.000000   )
 ( -0.009829   0.000000    -0.019960   0.000000    -0.021193   0.000000   )
 (  0.010721   0.000000     0.339674   0.000000    -0.030516   0.000000   )
 (  0.240875   0.000000    -0.026353   0.000000    -0.322495   0.000000   )
 ( -0.350692   0.000000    -0.174773   0.000000    -0.067294   0.000000   )
 (  0.087042   0.000000    -0.178674   0.000000     0.149229   0.000000   )
 ( -0.087031   0.000000     0.178761   0.000000    -0.149301   0.000000   )
 (  0.350733   0.000000     0.174830   0.000000     0.067374   0.000000   )
 ( -0.010700   0.000000    -0.339561   0.000000     0.030498   0.000000   )
 ( -0.240892   0.000000     0.026314   0.000000     0.322396   0.000000   )
     freq (   24) =       9.776418 [THz] =     326.106206 [cm-1]
 (  0.001424   0.000000     0.000635   0.000000     0.001860   0.000000   )
 ( -0.001423   0.000000    -0.000635   0.000000    -0.001860   0.000000   )
 ( -0.038699   0.000000    -0.029862   0.000000    -0.064944   0.000000   )
 (  0.038691   0.000000     0.029870   0.000000     0.064948   0.000000   )
 (  0.200920   0.000000     0.062281   0.000000    -0.267136   0.000000   )
 (  0.251817   0.000000    -0.219596   0.000000     0.173567   0.000000   )
 ( -0.071265   0.000000     0.302310   0.000000     0.070102   0.000000   )
 ( -0.314488   0.000000    -0.188802   0.000000    -0.009565   0.000000   )
 (  0.314479   0.000000     0.188804   0.000000     0.009575   0.000000   )
 (  0.071291   0.000000    -0.302328   0.000000    -0.070112   0.000000   )
 ( -0.200918   0.000000    -0.062317   0.000000     0.267100   0.000000   )
 ( -0.251805   0.000000     0.219595   0.000000    -0.173558   0.000000   )
     freq (   25) =      10.092853 [THz] =     336.661347 [cm-1]
 ( -0.005851   0.000000    -0.002020   0.000000     0.005453   0.000000   )
 (  0.005852   0.000000     0.002020   0.000000    -0.005453   0.000000   )
 (  0.024625   0.000000     0.088022   0.000000    -0.051444   0.000000   )
 ( -0.024623   0.000000    -0.088023   0.000000     0.051447   0.000000   )
 (  0.138969   0.000000     0.330073   0.000000    -0.157351   0.000000   )
 (  0.090959   0.000000     0.077272   0.000000     0.225455   0.000000   )
 (  0.010415   0.000000    -0.112858   0.000000    -0.204935   0.000000   )
 (  0.070872   0.000000     0.346952   0.000000    -0.300988   0.000000   )
 ( -0.070874   0.000000    -0.346918   0.000000     0.300962   0.000000   )
 ( -0.010457   0.000000     0.112872   0.000000     0.204950   0.000000   )
 ( -0.138971   0.000000    -0.330101   0.000000     0.157361   0.000000   )
 ( -0.090927   0.000000    -0.077287   0.000000    -0.225481   0.000000   )
     freq (   26) =      10.152272 [THz] =     338.643338 [cm-1]
 (  0.003511   0.000000    -0.006715   0.000000     0.000803   0.000000   )
 ( -0.003511   0.000000     0.006714   0.000000    -0.000804   0.000000   )
 ( -0.092097   0.000000     0.040457   0.000000     0.023885   0.000000   )
 (  0.092097   0.000000    -0.040460   0.000000    -0.023893   0.000000   )
 (  0.044346   0.000000     0.010230   0.000000     0.236081   0.000000   )
 (  0.318701   0.000000    -0.167482   0.000000    -0.165509   0.000000   )
 (  0.426685   0.000000    -0.185676   0.000000    -0.028617   0.000000   )
 ( -0.087718   0.000000    -0.103110   0.000000    -0.196825   0.000000   )
 (  0.087697   0.000000     0.103083   0.000000     0.196819   0.000000   )
 ( -0.426633   0.000000     0.185710   0.000000     0.028629   0.000000   )
 ( -0.044337   0.000000    -0.010224   0.000000    -0.236107   0.000000   )
 ( -0.318744   0.000000     0.167491   0.000000     0.165584   0.000000   )
     freq (   27) =      10.769034 [THz] =     359.216293 [cm-1]
 (  0.003659   0.000000     0.005341   0.000000     0.009811   0.000000   )
 (  0.003659   0.000000     0.005341   0.000000     0.009812   0.000000   )
 (  0.017761   0.000000     0.008092   0.000000     0.031803   0.000000   )
 (  0.017769   0.000000     0.008098   0.000000     0.031798   0.000000   )
 ( -0.007765   0.000000    -0.401684   0.000000    -0.004697   0.000000   )
 (  0.241377   0.000000    -0.085858   0.000000    -0.045221   0.000000   )
 ( -0.260316   0.000000     0.106691   0.000000     0.076009   0.000000   )
 ( -0.116874   0.000000     0.271861   0.000000    -0.311229   0.000000   )
 ( -0.116865   0.000000     0.271896   0.000000    -0.311248   0.000000   )
 ( -0.260344   0.000000     0.106696   0.000000     0.075997   0.000000   )
 ( -0.007752   0.000000    -0.401642   0.000000    -0.004722   0.000000   )
 (  0.241375   0.000000    -0.085843   0.000000    -0.045188   0.000000   )
     freq (   28) =      10.802600 [THz] =     360.335958 [cm-1]
 (  0.001137   0.000000     0.001739   0.000000     0.003756   0.000000   )
 (  0.001135   0.000000     0.001741   0.000000     0.003755   0.000000   )
 (  0.005744   0.000000     0.003543   0.000000     0.010944   0.000000   )
 (  0.005760   0.000000     0.003542   0.000000     0.010940   0.000000   )
 ( -0.060680   0.000000     0.139131   0.000000     0.230474   0.000000   )
 (  0.145410   0.000000    -0.020709   0.000000    -0.391094   0.000000   )
 ( -0.349340   0.000000    -0.203612   0.000000    -0.101847   0.000000   )
 (  0.219268   0.000000     0.044740   0.000000     0.158646   0.000000   )
 (  0.219291   0.000000     0.044769   0.000000     0.158664   0.000000   )
 ( -0.349405   0.000000    -0.203617   0.000000    -0.101858   0.000000   )
 ( -0.060687   0.000000     0.139138   0.000000     0.230446   0.000000   )
 (  0.145367   0.000000    -0.020676   0.000000    -0.391071   0.000000   )
     freq (   29) =      24.319430 [THz] =     811.208882 [cm-1]
 (  0.003266   0.000000     0.001024   0.000000    -0.001864   0.000000   )
 ( -0.003267   0.000000    -0.001029   0.000000     0.001868   0.000000   )
 ( -0.052605   0.000000    -0.116096   0.000000     0.077317   0.000000   )
 (  0.052569   0.000000     0.116104   0.000000    -0.077690   0.000000   )
 ( -0.019155   0.000000    -0.020822   0.000000     0.018443   0.000000   )
 (  0.219141   0.000000     0.430066   0.000000     0.014259   0.000000   )
 (  0.047271   0.000000     0.224348   0.000000    -0.434469   0.000000   )
 ( -0.023704   0.000000    -0.014999   0.000000     0.027004   0.000000   )
 (  0.023238   0.000000     0.015465   0.000000    -0.026415   0.000000   )
 ( -0.047315   0.000000    -0.224993   0.000000     0.435772   0.000000   )
 (  0.019770   0.000000     0.020734   0.000000    -0.018196   0.000000   )
 ( -0.219020   0.000000    -0.429813   0.000000    -0.014203   0.000000   )
     freq (   30) =      24.331757 [THz] =     811.620045 [cm-1]
 (  0.001754   0.000000    -0.003362   0.000000     0.001333   0.000000   )
 ( -0.001753   0.000000     0.003361   0.000000    -0.001336   0.000000   )
 ( -0.127877   0.000000     0.073422   0.000000     0.023395   0.000000   )
 (  0.127969   0.000000    -0.073229   0.000000    -0.022981   0.000000   )
 ( -0.437257   0.000000     0.080911   0.000000    -0.157688   0.000000   )
 (  0.018323   0.000000    -0.037327   0.000000    -0.003849   0.000000   )
 (  0.024398   0.000000    -0.021362   0.000000    -0.004327   0.000000   )
 ( -0.280743   0.000000     0.296581   0.000000     0.292038   0.000000   )
 (  0.281507   0.000000    -0.297376   0.000000    -0.292957   0.000000   )
 ( -0.024360   0.000000     0.021861   0.000000     0.003286   0.000000   )
 (  0.436320   0.000000    -0.080817   0.000000     0.157313   0.000000   )
 ( -0.018744   0.000000     0.036388   0.000000     0.003732   0.000000   )
     freq (   31) =      24.467106 [THz] =     816.134801 [cm-1]
 ( -0.000338   0.000000     0.000345   0.000000     0.000969   0.000000   )
 ( -0.000337   0.000000     0.000358   0.000000     0.000959   0.000000   )
 ( -0.026713   0.000000    -0.055639   0.000000    -0.123377   0.000000   )
 ( -0.026428   0.000000    -0.056166   0.000000    -0.123293   0.000000   )
 (  0.259791   0.000000    -0.025524   0.000000     0.103811   0.000000   )
 (  0.130114   0.000000     0.289704   0.000000     0.036224   0.000000   )
 ( -0.011945   0.000000    -0.158106   0.000000     0.329615   0.000000   )
 ( -0.217056   0.000000     0.224950   0.000000     0.261825   0.000000   )
 ( -0.216189   0.000000     0.223935   0.000000     0.260916   0.000000   )
 ( -0.011912   0.000000    -0.157550   0.000000     0.328700   0.000000   )
 (  0.261168   0.000000    -0.025838   0.000000     0.104360   0.000000   )
 (  0.130620   0.000000     0.290952   0.000000     0.036286   0.000000   )
     freq (   32) =      24.777761 [THz] =     826.497153 [cm-1]
 (  0.000612   0.000000    -0.004601   0.000000     0.001884   0.000000   )
 (  0.000614   0.000000    -0.004602   0.000000     0.001878   0.000000   )
 ( -0.000721   0.000000     0.135970   0.000000    -0.061746   0.000000   )
 ( -0.000815   0.000000     0.135814   0.000000    -0.061736   0.000000   )
 (  0.118782   0.000000    -0.036886   0.000000     0.044091   0.000000   )
 ( -0.188540   0.000000    -0.435754   0.000000    -0.036463   0.000000   )
 ( -0.009493   0.000000    -0.214262   0.000000     0.412084   0.000000   )
 (  0.077244   0.000000    -0.089188   0.000000    -0.065547   0.000000   )
 (  0.077279   0.000000    -0.089282   0.000000    -0.065621   0.000000   )
 ( -0.009438   0.000000    -0.214113   0.000000     0.411838   0.000000   )
 (  0.118587   0.000000    -0.036899   0.000000     0.044027   0.000000   )
 ( -0.188199   0.000000    -0.435074   0.000000    -0.036405   0.000000   )
     freq (   33) =      24.790646 [THz] =     826.926946 [cm-1]
 (  0.004699   0.000000    -0.000056   0.000000    -0.001661   0.000000   )
 (  0.004697   0.000000    -0.000058   0.000000    -0.001664   0.000000   )
 ( -0.145477   0.000000     0.012709   0.000000     0.029774   0.000000   )
 ( -0.145493   0.000000     0.012703   0.000000     0.029697   0.000000   )
 (  0.481527   0.000000    -0.047060   0.000000     0.170261   0.000000   )
 (  0.091578   0.000000     0.157057   0.000000    -0.000619   0.000000   )
 (  0.026304   0.000000     0.038506   0.000000    -0.067403   0.000000   )
 (  0.233646   0.000000    -0.224372   0.000000    -0.264633   0.000000   )
 (  0.233773   0.000000    -0.224509   0.000000    -0.264805   0.000000   )
 (  0.026300   0.000000     0.038440   0.000000    -0.067237   0.000000   )
 (  0.481291   0.000000    -0.047039   0.000000     0.170154   0.000000   )
 (  0.091570   0.000000     0.157044   0.000000    -0.000598   0.000000   )
     freq (   34) =      25.504907 [THz] =     850.752114 [cm-1]
 ( -0.002803   0.000000    -0.003536   0.000000    -0.007551   0.000000   )
 (  0.002806   0.000000     0.003533   0.000000     0.007552   0.000000   )
 ( -0.055664   0.000000    -0.058128   0.000000    -0.124502   0.000000   )
 (  0.055588   0.000000     0.058204   0.000000     0.124457   0.000000   )
 ( -0.329233   0.000000     0.017836   0.000000    -0.151423   0.000000   )
 (  0.149809   0.000000     0.313797   0.000000     0.061986   0.000000   )
 (  0.005652   0.000000    -0.124949   0.000000     0.316286   0.000000   )
 (  0.149301   0.000000    -0.181123   0.000000    -0.225100   0.000000   )
 ( -0.149219   0.000000     0.181042   0.000000     0.225023   0.000000   )
 ( -0.005647   0.000000     0.124840   0.000000    -0.316071   0.000000   )
 (  0.329652   0.000000    -0.017892   0.000000     0.151577   0.000000   )
 ( -0.149879   0.000000    -0.313985   0.000000    -0.062006   0.000000   )
     freq (   35) =      26.935696 [THz] =     898.478107 [cm-1]
 ( -0.000014   0.000000     0.000014  -0.000000    -0.000028   0.000000   )
 (  0.000013  -0.000000    -0.000015   0.000000     0.000029   0.000000   )
 (  0.000976   0.000000    -0.000257   0.000000     0.000173  -0.000000   )
 ( -0.000952   0.000000     0.000258   0.000000    -0.000198   0.000000   )
 (  0.335753  -0.000000    -0.034847   0.000000     0.120468  -0.000000   )
 (  0.144561   0.000000     0.319345   0.000000     0.023698   0.000000   )
 ( -0.013241   0.000000    -0.160464   0.000000     0.313713   0.000000   )
 ( -0.194467   0.000000     0.193449  -0.000000     0.220382  -0.000000   )
 (  0.193642   0.000000    -0.192576   0.000000    -0.219413   0.000000   )
 (  0.013282  -0.000000     0.161047  -0.000000    -0.314924   0.000000   )
 ( -0.334478   0.000000     0.034699   0.000000    -0.119965   0.000000   )
 ( -0.145192   0.000000    -0.320653   0.000000    -0.023820   0.000000   )
     freq (   36) =      26.984067 [THz] =     900.091597 [cm-1]
 ( -0.000037   0.000000    -0.000005   0.000000     0.000016   0.000000   )
 ( -0.000035   0.000000    -0.000005   0.000000     0.000017   0.000000   )
 (  0.000625   0.000000     0.000321   0.000000    -0.000523   0.000000   )
 (  0.000605   0.000000     0.000327   0.000000    -0.000492   0.000000   )
 ( -0.327792   0.000000     0.036925   0.000000    -0.128384   0.000000   )
 (  0.152142   0.000000     0.315688   0.000000     0.030240   0.000000   )
 ( -0.013144   0.000000    -0.155609   0.000000     0.321852   0.000000   )
 (  0.187405   0.000000    -0.199373   0.000000    -0.219583   0.000000   )
 (  0.188123   0.000000    -0.200086   0.000000    -0.220392   0.000000   )
 ( -0.013080   0.000000    -0.154916   0.000000     0.320479   0.000000   )
 ( -0.329161   0.000000     0.037073   0.000000    -0.128868   0.000000   )
 (  0.151558   0.000000     0.314391   0.000000     0.030136   0.000000   )
 **************************************************************************
