
     Program PWSCF v.6.7MaX starts on  2Jul2026 at  2:46:32 

     This program is part of the open-source Quantum ESPRESSO suite
     for quantum simulation of materials; please cite
         "P. Giannozzi et al., J. Phys.:Condens. Matter 21 395502 (2009);
         "P. Giannozzi et al., J. Phys.:Condens. Matter 29 465901 (2017);
          URL http://www.quantum-espresso.org", 
     in publications or presentations arising from this work. More details at
     http://www.quantum-espresso.org/quote

     Parallel version (MPI), running on     8 processors

     MPI processes distributed on     1 nodes
     K-points division:     npool     =       2
     R & G space division:  proc/nbgrp/npool/nimage =       4
     Waiting for input...
     Reading input from standard input

     Current dimensions of program PWSCF are:
     Max number of different atomic species (ntypx) = 10
     Max number of k-points (npk) =  40000
     Max angular momentum in pseudopotentials (lmaxx) =  3
     file Ca.pbe-spn-kjpaw_psl.1.0.0.UPF: wavefunction(s)  3S renormalized
     file O.pbe-n-kjpaw_psl.0.1.UPF: wavefunction(s)  2P renormalized

     Subspace diagonalization in iterative solution of the eigenvalue problem:
     one sub-group per band group will be used
     scalapack distributed-memory algorithm (size of sub-group:  2*  2 procs)

     Message from routine setup:
     using ibrav=0 with symmetry is DISCOURAGED, use correct ibrav instead

     Parallelization info
     --------------------
     sticks:   dense  smooth     PW     G-vecs:    dense   smooth      PW
     Min         917     460    131                58981    20856    3155
     Max         919     461    132                58983    20859    3156
     Sum        3671    1843    527               235927    83431   12623



     bravais-lattice index     =            0
     lattice parameter (alat)  =      10.5541  a.u.
     unit-cell volume          =    1745.9730 (a.u.)^3
     number of atoms/cell      =           20
     number of atomic types    =            3
     number of electrons       =       160.00
     number of Kohn-Sham states=           96
     kinetic-energy cutoff     =      50.0000  Ry
     charge density cutoff     =     400.0000  Ry
     scf convergence threshold =      1.0E-08
     mixing beta               =       0.3000
     number of iterations used =            8  plain     mixing
     energy convergence thresh.=      1.0E-05
     force convergence thresh. =      1.0E-04
     press convergence thresh. =      5.0E-01
     Exchange-correlation= SLA  PW   PBX  PBC
                           (   1   4   3   4   0   0   0)
     nstep                     =           50


     celldm(1)=  10.554131  celldm(2)=   0.000000  celldm(3)=   0.000000
     celldm(4)=   0.000000  celldm(5)=   0.000000  celldm(6)=   0.000000

     crystal axes: (cart. coord. in units of alat)
               a(1) = (   1.000000  -0.000000   0.000000 )  
               a(2) = (   0.000000   1.034573   0.000000 )  
               a(3) = (   0.000000   0.000000   1.435519 )  

     reciprocal axes: (cart. coord. in units 2 pi/alat)
               b(1) = (  1.000000  0.000000  0.000000 )  
               b(2) = (  0.000000  0.966582 -0.000000 )  
               b(3) = ( -0.000000  0.000000  0.696612 )  


     PseudoPot. # 1 for Ca read from file:
     /data/pseudopotentials/Ca.pbe-spn-kjpaw_psl.1.0.0.UPF
     MD5 check sum: 1e11ab70c77b02a7d7d676f41d47b751
     Pseudo is Projector augmented-wave + core cor, Zval = 10.0
     Generated using &quot;atomic&quot; code by A. Dal Corso  v.6.4.1
     Shape of augmentation charge: PSQ
     Using radial grid of 1169 points,  6 beta functions with: 
                l(1) =   0
                l(2) =   0
                l(3) =   1
                l(4) =   1
                l(5) =   2
                l(6) =   2
     Q(r) pseudized with 0 coefficients 


     PseudoPot. # 2 for Zr read from file:
     /data/pseudopotentials/zr_pbe_v1.uspp.F.UPF
     MD5 check sum: 5db81b1e868ab7776c4564c113de050b
     Pseudo is Ultrasoft + core correction, Zval = 12.0
     Generated by new atomic code, or converted to UPF format
     Using radial grid of  887 points,  6 beta functions with: 
                l(1) =   0
                l(2) =   0
                l(3) =   1
                l(4) =   1
                l(5) =   2
                l(6) =   2
     Q(r) pseudized with  6 coefficients,  rinner =    1.200   1.200   1.200
                                                       1.200   1.200

     PseudoPot. # 3 for O  read from file:
     /data/pseudopotentials/O.pbe-n-kjpaw_psl.0.1.UPF
     MD5 check sum: 833c495a5d0f9b75bf046115549bffff
     Pseudo is Projector augmented-wave + core cor, Zval =  6.0
     Generated using &quot;atomic&quot; code by A. Dal Corso  v.6.3
     Shape of augmentation charge: BESSEL
     Using radial grid of 1095 points,  4 beta functions with: 
                l(1) =   0
                l(2) =   0
                l(3) =   1
                l(4) =   1
     Q(r) pseudized with 0 coefficients 


     atomic species   valence    mass     pseudopotential
        Ca            10.00    40.07800     Ca( 1.00)
        Zr            12.00    91.22400     Zr( 1.00)
        O              6.00    15.99900     O ( 1.00)

      8 Sym. Ops., with inversion, found ( 6 have fractional translation)



   Cartesian axes

     site n.     atom                  positions (alat units)
         1           Ca  tau(   1) = (   0.0135436   0.9808187   0.3588797  )
         2           Ca  tau(   2) = (   0.5135436   0.5710410   1.0766390  )
         3           Ca  tau(   3) = (   0.4864564   0.4635321   0.3588797  )
         4           Ca  tau(   4) = (   0.9864564   0.0537545   1.0766390  )
         5           Zr  tau(   5) = (   0.0000000   0.5172866   0.0000000  )
         6           Zr  tau(   6) = (   0.5000000   0.0000000   0.0000000  )
         7           Zr  tau(   7) = (   0.5000000   0.0000000   0.7177594  )
         8           Zr  tau(   8) = (   0.0000000   0.5172866   0.7177594  )
         9           O   tau(   9) = (   0.3023748   0.7245197   0.6365313  )
        10           O   tau(  10) = (   0.8023748   0.8273400   0.7989875  )
        11           O   tau(  11) = (   0.1976252   0.2072332   0.0812281  )
        12           O   tau(  12) = (   0.6976252   0.3100534   1.3542906  )
        13           O   tau(  13) = (   0.6976252   0.3100534   0.7989875  )
        14           O   tau(  14) = (   0.1976252   0.2072332   0.6365313  )
        15           O   tau(  15) = (   0.8023748   0.8273400   1.3542906  )
        16           O   tau(  16) = (   0.3023748   0.7245197   0.0812281  )
        17           O   tau(  17) = (   0.6068462   0.0429957   0.3588797  )
        18           O   tau(  18) = (   0.1068462   0.4742908   1.0766390  )
        19           O   tau(  19) = (   0.8931538   0.5602823   0.3588797  )
        20           O   tau(  20) = (   0.3931538   0.9915774   1.0766390  )

     number of k points=    27  Gaussian smearing, width (Ry)=  0.0050
                       cart. coord. in units 2pi/alat
        k(    1) = (   0.0000000   0.0000000   0.0000000), wk =   0.0312500
        k(    2) = (   0.0000000   0.0000000   0.1741531), wk =   0.0625000
        k(    3) = (   0.0000000   0.0000000  -0.3483062), wk =   0.0312500
        k(    4) = (   0.0000000   0.2416456   0.0000000), wk =   0.0625000
        k(    5) = (   0.0000000   0.2416456   0.1741531), wk =   0.1250000
        k(    6) = (   0.0000000   0.2416456  -0.3483062), wk =   0.0625000
        k(    7) = (   0.0000000  -0.4832911   0.0000000), wk =   0.0312500
        k(    8) = (   0.0000000  -0.4832911   0.1741531), wk =   0.0625000
        k(    9) = (   0.0000000  -0.4832911  -0.3483062), wk =   0.0312500
        k(   10) = (   0.2500000   0.0000000   0.0000000), wk =   0.0625000
        k(   11) = (   0.2500000   0.0000000   0.1741531), wk =   0.1250000
        k(   12) = (   0.2500000   0.0000000  -0.3483062), wk =   0.0625000
        k(   13) = (   0.2500000   0.2416456   0.0000000), wk =   0.1250000
        k(   14) = (   0.2500000   0.2416456   0.1741531), wk =   0.2500000
        k(   15) = (   0.2500000   0.2416456  -0.3483062), wk =   0.1250000
        k(   16) = (   0.2500000  -0.4832911   0.0000000), wk =   0.0625000
        k(   17) = (   0.2500000  -0.4832911   0.1741531), wk =   0.1250000
        k(   18) = (   0.2500000  -0.4832911  -0.3483062), wk =   0.0625000
        k(   19) = (  -0.5000000   0.0000000   0.0000000), wk =   0.0312500
        k(   20) = (  -0.5000000   0.0000000   0.1741531), wk =   0.0625000
        k(   21) = (  -0.5000000   0.0000000  -0.3483062), wk =   0.0312500
        k(   22) = (  -0.5000000   0.2416456   0.0000000), wk =   0.0625000
        k(   23) = (  -0.5000000   0.2416456   0.1741531), wk =   0.1250000
        k(   24) = (  -0.5000000   0.2416456  -0.3483062), wk =   0.0625000
        k(   25) = (  -0.5000000  -0.4832911   0.0000000), wk =   0.0312500
        k(   26) = (  -0.5000000  -0.4832911   0.1741531), wk =   0.0625000
        k(   27) = (  -0.5000000  -0.4832911  -0.3483062), wk =   0.0312500

     Dense  grid:   235927 G-vectors     FFT dimensions: (  72,  72, 100)

     Smooth grid:    83431 G-vectors     FFT dimensions: (  48,  50,  72)

     Estimated max dynamical RAM per process >     212.67 MB

     Estimated total dynamical RAM >       1.66 GB

     Check: negative core charge=   -0.000003

     Initial potential from superposition of free atoms

     starting charge  159.97197, renormalised to  160.00000

     negative rho (up, down):  2.493E-01 0.000E+00
     Starting wfcs are  132 randomized atomic wfcs
     Checking if some PAW data can be deallocated... 

     total cpu time spent up to now is       96.1 secs

     Self-consistent Calculation

     iteration #  1     ecut=    50.00 Ry     beta= 0.30
     Davidson diagonalization with overlap
     ethr =  1.00E-02,  avg # of iterations =  2.0

     negative rho (up, down):  2.543E-01 0.000E+00

     total cpu time spent up to now is      279.8 secs

     total energy              =   -1432.36725199 Ry
     estimated scf accuracy    <       6.57934961 Ry

     iteration #  2     ecut=    50.00 Ry     beta= 0.30
     Davidson diagonalization with overlap
     ethr =  4.11E-03,  avg # of iterations =  2.0

     negative rho (up, down):  2.592E-01 0.000E+00

     total cpu time spent up to now is      509.0 secs

     total energy              =   -1433.62800412 Ry
     estimated scf accuracy    <       0.21398767 Ry

     iteration #  3     ecut=    50.00 Ry     beta= 0.30
     Davidson diagonalization with overlap
     c_bands:  2 eigenvalues not converged
     c_bands:  1 eigenvalues not converged
     c_bands:  2 eigenvalues not converged
     ethr =  1.34E-04,  avg # of iterations = 15.4

     negative rho (up, down):  2.627E-01 0.000E+00

     total cpu time spent up to now is     1048.7 secs

     total energy              =   -1433.78510887 Ry
     estimated scf accuracy    <       0.15636588 Ry

     iteration #  4     ecut=    50.00 Ry     beta= 0.30
     Davidson diagonalization with overlap
     ethr =  9.77E-05,  avg # of iterations =  3.4

     negative rho (up, down):  2.682E-01 0.000E+00

     total cpu time spent up to now is     1279.6 secs

     total energy              =   -1433.82038534 Ry
     estimated scf accuracy    <       0.04444305 Ry

     iteration #  5     ecut=    50.00 Ry     beta= 0.30
     Davidson diagonalization with overlap
     c_bands:  2 eigenvalues not converged
     c_bands:  2 eigenvalues not converged
     c_bands:  1 eigenvalues not converged
     ethr =  2.78E-05,  avg # of iterations =  8.7

     negative rho (up, down):  2.681E-01 0.000E+00

     total cpu time spent up to now is     1530.5 secs

     total energy              =   -1433.82168627 Ry
     estimated scf accuracy    <       0.00956616 Ry

     iteration #  6     ecut=    50.00 Ry     beta= 0.30
     Davidson diagonalization with overlap
     c_bands:  1 eigenvalues not converged
     c_bands:  2 eigenvalues not converged
     c_bands:  2 eigenvalues not converged
     c_bands:  1 eigenvalues not converged
     c_bands:  2 eigenvalues not converged
     c_bands:  1 eigenvalues not converged
     ethr =  5.98E-06,  avg # of iterations = 15.0

     negative rho (up, down):  2.685E-01 0.000E+00

     total cpu time spent up to now is     1892.9 secs

     total energy              =   -1433.82181836 Ry
     estimated scf accuracy    <       0.00306449 Ry

     iteration #  7     ecut=    50.00 Ry     beta= 0.30
     Davidson diagonalization with overlap
     c_bands:  3 eigenvalues not converged
     c_bands:  1 eigenvalues not converged
     c_bands:  1 eigenvalues not converged
     c_bands:  1 eigenvalues not converged
     c_bands:  2 eigenvalues not converged
     ethr =  1.92E-06,  avg # of iterations = 14.5

     negative rho (up, down):  2.685E-01 0.000E+00

     total cpu time spent up to now is     2236.0 secs

     total energy              =   -1433.82285372 Ry
     estimated scf accuracy    <       0.00011265 Ry

     iteration #  8     ecut=    50.00 Ry     beta= 0.30
     Davidson diagonalization with overlap
     c_bands:  2 eigenvalues not converged
     c_bands:  1 eigenvalues not converged
     c_bands:  1 eigenvalues not converged
     ethr =  7.04E-08,  avg # of iterations =  9.0

     negative rho (up, down):  2.685E-01 0.000E+00

     total cpu time spent up to now is     2610.7 secs

     total energy              =   -1433.82289246 Ry
     estimated scf accuracy    <       0.00025154 Ry

     iteration #  9     ecut=    50.00 Ry     beta= 0.30
     Davidson diagonalization with overlap
     ethr =  7.04E-08,  avg # of iterations =  2.6

     negative rho (up, down):  2.685E-01 0.000E+00

     total cpu time spent up to now is     2822.6 secs

     total energy              =   -1433.82288007 Ry
     estimated scf accuracy    <       0.00005533 Ry

     iteration # 10     ecut=    50.00 Ry     beta= 0.30
     Davidson diagonalization with overlap
     ethr =  3.46E-08,  avg # of iterations =  5.0

     negative rho (up, down):  2.685E-01 0.000E+00

     total cpu time spent up to now is     3120.6 secs

     total energy              =   -1433.82290348 Ry
     estimated scf accuracy    <       0.00001880 Ry

     iteration # 11     ecut=    50.00 Ry     beta= 0.30
     Davidson diagonalization with overlap
     ethr =  1.17E-08,  avg # of iterations =  2.0

     negative rho (up, down):  2.685E-01 0.000E+00

     total cpu time spent up to now is     3345.2 secs

     total energy              =   -1433.82290724 Ry
     estimated scf accuracy    <       0.00000014 Ry

     iteration # 12     ecut=    50.00 Ry     beta= 0.30
     Davidson diagonalization with overlap
     ethr =  8.71E-11,  avg # of iterations =  8.3

     negative rho (up, down):  2.685E-01 0.000E+00

     total cpu time spent up to now is     3765.3 secs

     total energy              =   -1433.82290773 Ry
     estimated scf accuracy    <       0.00000009 Ry

     iteration # 13     ecut=    50.00 Ry     beta= 0.30
     Davidson diagonalization with overlap
     ethr =  5.58E-11,  avg # of iterations =  5.0

     negative rho (up, down):  2.685E-01 0.000E+00

     total cpu time spent up to now is     4067.2 secs

     total energy              =   -1433.82290777 Ry
     estimated scf accuracy    <       0.00000026 Ry

     iteration # 14     ecut=    50.00 Ry     beta= 0.30
     Davidson diagonalization with overlap
     ethr =  5.58E-11,  avg # of iterations =  2.0

     negative rho (up, down):  2.685E-01 0.000E+00

     total cpu time spent up to now is     4263.9 secs

     total energy              =   -1433.82290774 Ry
     estimated scf accuracy    <       0.00000009 Ry

     iteration # 15     ecut=    50.00 Ry     beta= 0.30
     Davidson diagonalization with overlap
     ethr =  5.58E-11,  avg # of iterations =  4.5

     negative rho (up, down):  2.685E-01 0.000E+00

     total cpu time spent up to now is     4491.5 secs

     End of self-consistent calculation

          k = 0.0000 0.0000 0.0000 ( 10385 PWs)   bands (ev):

   -38.1718 -38.1665 -38.1615 -38.1564 -29.0662 -29.0630 -29.0558 -29.0521
   -16.6010 -16.5838 -16.5667 -16.5615 -16.5566 -16.5224 -16.3072 -16.3067
   -16.2963 -16.2915 -16.2731 -16.2714 -10.4065 -10.3400 -10.3307 -10.2980
   -10.2779 -10.2336 -10.1633 -10.1262 -10.1179 -10.1143 -10.1015 -10.0988
    -7.6629  -7.2507  -7.0973  -7.0832  -7.0065  -6.9727  -6.3567  -6.2170
    -6.2166  -6.1475  -6.0557  -6.0190   4.9061   5.1646   5.1719   5.2471
     5.3003   5.3265   5.4249   5.4852   5.5816   5.8472   6.6513   6.8078
     6.9462   7.0128   7.0519   7.1131   7.1196   7.2377   7.2621   7.3250
     7.3623   7.4805   7.7951   7.8437   8.0467   8.0974   8.1759   8.1826
     8.2047   8.2311   8.4296   8.4396   8.4590   8.5347   8.5809   8.6453
    12.6806  12.8348  12.8371  13.2223  13.6879  14.0764  14.2688  14.4911
    14.6797  14.7252  14.7524  15.0722  15.4728  15.5882  15.6647  15.7194

          k = 0.0000 0.0000 0.1742 ( 10438 PWs)   bands (ev):

   -38.1710 -38.1673 -38.1607 -38.1571 -29.0657 -29.0635 -29.0553 -29.0527
   -16.5870 -16.5781 -16.5642 -16.5599 -16.5316 -16.4956 -16.3420 -16.3160
   -16.3055 -16.2968 -16.2900 -16.2798 -10.3776 -10.3308 -10.3269 -10.2985
   -10.2894 -10.2128 -10.2009 -10.1328 -10.1250 -10.1173 -10.1008 -10.0990
    -7.5614  -7.1935  -7.1535  -7.1063  -6.9261  -6.8920  -6.4376  -6.3263
    -6.2015  -6.1411  -6.1094  -6.0691   4.9901   5.1930   5.2904   5.3505
     5.3591   5.4289   5.4660   5.5940   5.6688   5.8832   6.4291   6.5186
     6.8293   6.9182   6.9480   7.0718   7.1672   7.2438   7.3347   7.3713
     7.3819   7.6757   7.7373   7.7777   7.8722   7.9807   8.1316   8.1544
     8.2841   8.3322   8.4148   8.4473   8.4634   8.4841   8.4951   8.5524
    12.8404  12.8778  13.0245  13.2520  13.6471  14.0782  14.1565  14.6684
    14.7277  14.7404  14.8890  15.0355  15.2213  15.5476  15.7697  15.8111

          k = 0.0000 0.0000-0.3483 ( 10426 PWs)   bands (ev):

   -38.1691 -38.1691 -38.1589 -38.1589 -29.0646 -29.0646 -29.0540 -29.0540
   -16.5708 -16.5708 -16.5697 -16.5697 -16.4380 -16.4380 -16.4114 -16.4114
   -16.3014 -16.3014 -16.2860 -16.2860 -10.3269 -10.3269 -10.3101 -10.3101
   -10.2775 -10.2775 -10.1715 -10.1715 -10.1215 -10.1215 -10.0996 -10.0996
    -7.3409  -7.3409  -7.1337  -7.1337  -6.6724  -6.6724  -6.6440  -6.6440
    -6.1634  -6.1634  -6.1203  -6.1203   5.1881   5.1881   5.2482   5.2482
     5.4495   5.4495   5.8554   5.8554   5.9510   5.9510   6.3184   6.3184
     6.4038   6.4038   7.1843   7.1843   7.2270   7.2270   7.4667   7.4667
     7.5013   7.5013   7.5778   7.5778   7.6215   7.6215   8.3056   8.3056
     8.3327   8.3327   8.4185   8.4185   8.4524   8.4524   8.5043   8.5043
    12.9497  12.9497  13.4053  13.4053  13.5776  13.5776  14.4024  14.4024
    14.8560  14.8560  15.0262  15.0262  15.4778  15.4778  15.6738  15.7906

          k = 0.0000 0.2416 0.0000 ( 10417 PWs)   bands (ev):

   -38.1703 -38.1650 -38.1630 -38.1579 -29.0648 -29.0613 -29.0575 -29.0536
   -16.5810 -16.5726 -16.5393 -16.5245 -16.5214 -16.5063 -16.3488 -16.3366
   -16.3356 -16.3320 -16.2835 -16.2758 -10.3624 -10.3130 -10.2996 -10.2810
   -10.2642 -10.2415 -10.1597 -10.1595 -10.1590 -10.1451 -10.1248 -10.1235
    -7.4571  -7.1391  -6.9817  -6.9814  -6.9658  -6.9656  -6.3699  -6.3686
    -6.3271  -6.2943  -6.1367  -6.1265   5.1734   5.2207   5.2939   5.4094
     5.4820   5.6353   5.6424   5.6896   5.7136   6.0154   6.1612   6.3990
     6.7817   6.8621   6.9083   6.9731   7.1211   7.2052   7.3503   7.3537
     7.5509   7.6115   7.6567   7.8340   7.8476   7.9241   7.9897   8.0209
     8.1006   8.1708   8.2376   8.2443   8.2898   8.4152   8.5158   8.6116
    12.9567  13.1396  13.2807  13.5914  13.8302  13.9748  14.3716  14.4347
    14.6715  14.8001  14.9044  14.9768  15.0183  15.6709  15.8183  15.8574

          k = 0.0000 0.2416 0.1742 ( 10410 PWs)   bands (ev):

   -38.1695 -38.1658 -38.1622 -38.1586 -29.0643 -29.0618 -29.0569 -29.0542
   -16.5579 -16.5448 -16.5275 -16.5260 -16.5242 -16.4889 -16.3508 -16.3470
   -16.3389 -16.3308 -16.3170 -16.3118 -10.3401 -10.3059 -10.2956 -10.2804
   -10.2739 -10.2196 -10.1992 -10.1588 -10.1507 -10.1459 -10.1366 -10.1248
    -7.3653  -7.0491  -7.0388  -6.9766  -6.9289  -6.8823  -6.4236  -6.3622
    -6.3496  -6.2901  -6.2721  -6.2115   5.2504   5.4564   5.4906   5.5278
     5.5488   5.6101   5.6649   5.7462   5.7566   6.0050   6.2904   6.4482
     6.5713   6.5779   6.8392   6.8569   6.9161   7.0636   7.1631   7.4268
     7.4912   7.5615   7.7321   7.8647   7.8733   7.9434   7.9464   8.0165
     8.1123   8.1205   8.2355   8.2776   8.3674   8.4403   8.4970   8.5360
    13.1308  13.2901  13.3257  13.5727  13.8085  14.0695  14.1697  14.5047
    14.7215  14.7456  14.8345  14.9357  15.1953  15.6488  15.8199  15.8685

          k = 0.0000 0.2416-0.3483 ( 10416 PWs)   bands (ev):

   -38.1676 -38.1676 -38.1604 -38.1604 -29.0631 -29.0631 -29.0556 -29.0556
   -16.5337 -16.5337 -16.5334 -16.5334 -16.4373 -16.4373 -16.4132 -16.4132
   -16.3424 -16.3424 -16.3269 -16.3269 -10.2996 -10.2996 -10.2896 -10.2896
   -10.2598 -10.2598 -10.1804 -10.1804 -10.1516 -10.1516 -10.1340 -10.1340
    -7.1803  -7.1803  -6.9934  -6.9934  -6.6573  -6.6573  -6.6437  -6.6437
    -6.3418  -6.3418  -6.2764  -6.2764   5.4276   5.4276   5.5375   5.5375
     5.7326   5.7326   5.9679   5.9679   5.9911   5.9911   6.2929   6.2929
     6.3836   6.3836   6.7181   6.7181   6.9219   6.9219   7.1219   7.1219
     7.3031   7.3031   7.7482   7.7482   7.9321   7.9321   8.0722   8.0722
     8.0980   8.0980   8.3259   8.3259   8.4617   8.4617   8.4923   8.4923
    13.3958  13.3958  13.6087  13.6087  13.6943  13.6943  14.3689  14.3689
    14.6681  14.6681  14.8522  14.8522  15.6769  15.6769  15.7256  15.7256

          k = 0.0000-0.4833 0.0000 ( 10444 PWs)   bands (ev):

   -38.1666 -38.1666 -38.1614 -38.1614 -29.0613 -29.0613 -29.0574 -29.0574
   -16.5698 -16.5698 -16.4487 -16.4487 -16.4398 -16.4398 -16.4251 -16.4251
   -16.4233 -16.4233 -16.2814 -16.2814 -10.2839 -10.2839 -10.2728 -10.2728
   -10.2265 -10.2265 -10.2132 -10.2132 -10.1856 -10.1856 -10.1448 -10.1448
    -7.1545  -7.1545  -6.7935  -6.7935  -6.7118  -6.7118  -6.6261  -6.6261
    -6.6247  -6.6247  -6.1621  -6.1621   5.2958   5.2958   5.6199   5.6199
     5.6768   5.6768   6.1259   6.1259   6.2776   6.2776   6.3268   6.3268
     6.3873   6.3873   6.5682   6.5682   6.7991   6.7991   7.1341   7.1341
     7.4740   7.4740   7.6131   7.6131   7.7471   7.7471   8.0512   8.0512
     8.0516   8.0516   8.1648   8.1648   8.4522   8.4522   8.4662   8.4662
    13.4825  13.4825  13.7952  13.7952  13.9572  13.9572  14.4052  14.4052
    14.4559  14.4559  14.6641  14.6641  15.6470  15.6470  16.0581  16.0640

          k = 0.0000-0.4833 0.1742 ( 10438 PWs)   bands (ev):

   -38.1659 -38.1659 -38.1622 -38.1622 -29.0607 -29.0607 -29.0579 -29.0579
   -16.5332 -16.5332 -16.4458 -16.4458 -16.4428 -16.4428 -16.4252 -16.4252
   -16.4230 -16.4230 -16.3224 -16.3224 -10.2771 -10.2771 -10.2527 -10.2527
   -10.2233 -10.2233 -10.2164 -10.2164 -10.1981 -10.1981 -10.1571 -10.1571
    -7.0320  -7.0320  -6.7665  -6.7665  -6.7161  -6.7161  -6.6426  -6.6426
    -6.6259  -6.6259  -6.3088  -6.3088   5.5533   5.5533   5.7492   5.7492
     5.7851   5.7851   6.0980   6.0980   6.2635   6.2635   6.3261   6.3261
     6.4119   6.4119   6.6022   6.6022   6.7139   6.7139   6.8097   6.8097
     7.0965   7.0965   7.4308   7.4308   7.9644   7.9644   8.1529   8.1529
     8.1704   8.1704   8.2385   8.2385   8.3149   8.3149   8.4845   8.4845
    13.6086  13.6086  13.8635  13.8635  14.0445  14.0445  14.2914  14.2914
    14.4694  14.4694  14.5193  14.5193  15.6984  15.6984  16.0196  16.0208

          k = 0.0000-0.4833-0.3483 ( 10424 PWs)   bands (ev):

   -38.1640 -38.1640 -38.1640 -38.1640 -29.0593 -29.0593 -29.0593 -29.0593
   -16.4607 -16.4607 -16.4607 -16.4607 -16.4340 -16.4340 -16.4340 -16.4340
   -16.4035 -16.4035 -16.4035 -16.4035 -10.2495 -10.2495 -10.2495 -10.2495
   -10.2240 -10.2240 -10.2240 -10.2240 -10.1879 -10.1879 -10.1879 -10.1879
    -6.7973  -6.7973  -6.7973  -6.7973  -6.6414  -6.6414  -6.6414  -6.6414
    -6.6167  -6.6167  -6.6167  -6.6167   5.8947   5.8947   5.8947   5.8947
     6.0578   6.0578   6.0578   6.0578   6.2492   6.2492   6.2492   6.2492
     6.4958   6.4958   6.4958   6.4958   6.6767   6.6767   6.6767   6.6767
     6.8705   6.8705   6.8705   6.8705   8.1340   8.1340   8.1340   8.1340
     8.2124   8.2124   8.2124   8.2124   8.4625   8.4625   8.4625   8.4625
    13.9183  13.9183  13.9183  13.9183  14.1106  14.1106  14.1106  14.1106
    14.3726  14.3726  14.3726  14.3726  15.8630  15.8632  15.8633  15.8638

          k = 0.2500 0.0000 0.0000 ( 10418 PWs)   bands (ev):

   -38.1703 -38.1650 -38.1630 -38.1579 -29.0649 -29.0616 -29.0572 -29.0536
   -16.5825 -16.5738 -16.5379 -16.5273 -16.5192 -16.5066 -16.3476 -16.3394
   -16.3331 -16.3331 -16.2834 -16.2758 -10.3655 -10.3532 -10.2919 -10.2577
   -10.2555 -10.2443 -10.2062 -10.1560 -10.1556 -10.1208 -10.1179 -10.1142
    -7.4425  -7.1697  -6.9804  -6.9688  -6.9675  -6.9375  -6.3974  -6.3550
    -6.3082  -6.3039  -6.1409  -6.1134   5.2010   5.2213   5.3170   5.3466
     5.5748   5.5972   5.6228   5.6465   5.6473   6.0210   6.0774   6.3290
     6.8201   6.8607   6.9380   6.9978   7.0911   7.1585   7.2582   7.3469
     7.5675   7.6387   7.7218   7.7291   7.8225   7.9921   8.0710   8.0739
     8.1543   8.1994   8.2115   8.3570   8.3774   8.4053   8.5114   8.5300
    12.9436  13.1476  13.1505  13.4913  13.8843  13.9928  14.4081  14.4911
    14.6620  14.7744  14.7964  15.0462  15.2116  15.6010  15.6699  15.9159

          k = 0.2500 0.0000 0.1742 ( 10423 PWs)   bands (ev):

   -38.1695 -38.1658 -38.1622 -38.1586 -29.0644 -29.0620 -29.0567 -29.0541
   -16.5591 -16.5453 -16.5294 -16.5261 -16.5225 -16.4890 -16.3502 -16.3460
   -16.3411 -16.3313 -16.3173 -16.3108 -10.3507 -10.3312 -10.2977 -10.2633
   -10.2570 -10.2323 -10.2070 -10.1701 -10.1620 -10.1351 -10.1157 -10.1145
    -7.3531  -7.0847  -7.0237  -6.9860  -6.8877  -6.8862  -6.4335  -6.3552
    -6.3417  -6.3056  -6.2378  -6.2266   5.2629   5.3909   5.4829   5.5590
     5.5883   5.6173   5.6446   5.6890   5.7696   5.9776   6.1735   6.3533
     6.5490   6.6570   6.7884   6.9070   7.0192   7.0541   7.2526   7.3851
     7.4033   7.5768   7.6445   7.7428   7.8203   7.9969   8.0314   8.0336
     8.2000   8.2029   8.2861   8.2952   8.3998   8.4694   8.4739   8.5434
    13.0929  13.1777  13.3184  13.5025  13.8789  14.0834  14.2258  14.5089
    14.7163  14.7631  14.7700  14.9025  15.2276  15.6980  15.7564  15.9527

          k = 0.2500 0.0000-0.3483 ( 10446 PWs)   bands (ev):

   -38.1676 -38.1676 -38.1604 -38.1604 -29.0632 -29.0632 -29.0554 -29.0554
   -16.5350 -16.5350 -16.5327 -16.5327 -16.4377 -16.4377 -16.4134 -16.4134
   -16.3432 -16.3432 -16.3262 -16.3262 -10.3209 -10.3209 -10.2750 -10.2750
   -10.2608 -10.2608 -10.1833 -10.1833 -10.1627 -10.1627 -10.1148 -10.1148
    -7.1713  -7.1713  -7.0036  -7.0036  -6.6570  -6.6570  -6.6341  -6.6341
    -6.3113  -6.3113  -6.3015  -6.3015   5.3857   5.3857   5.5639   5.5639
     5.7431   5.7431   5.8636   5.8636   6.0608   6.0608   6.2406   6.2406
     6.3549   6.3549   6.8261   6.8261   6.9047   6.9047   7.0815   7.0815
     7.3463   7.3463   7.6131   7.6131   7.8947   7.8947   8.0963   8.0963
     8.1726   8.1726   8.4004   8.4004   8.4552   8.4552   8.5293   8.5293
    13.2425  13.2425  13.6228  13.6228  13.7957  13.7957  14.3679  14.3679
    14.6750  14.6750  14.7528  14.7528  15.6094  15.6094  15.8763  15.8765

          k = 0.2500 0.2416 0.0000 ( 10420 PWs)   bands (ev):

   -38.1692 -38.1640 -38.1640 -38.1589 -29.0639 -29.0604 -29.0584 -29.0546
   -16.5953 -16.5724 -16.5673 -16.5456 -16.4437 -16.4432 -16.4292 -16.4204
   -16.2995 -16.2942 -16.2783 -16.2728 -10.3819 -10.3299 -10.3074 -10.2871
   -10.2424 -10.2193 -10.2009 -10.1918 -10.1574 -10.1310 -10.1074 -10.0950
    -7.3153  -7.1489  -7.1304  -7.0831  -6.7439  -6.7159  -6.6538  -6.6225
    -6.2004  -6.1670  -6.1450  -6.1248   5.1547   5.2399   5.2670   5.2672
     5.4621   5.4938   5.5649   5.9092   5.9431   6.2136   6.3296   6.3955
     6.5482   6.9590   7.0034   7.0296   7.0915   7.1925   7.2265   7.2819
     7.3929   7.4123   7.5512   7.6702   7.6913   7.7997   7.8786   8.1531
     8.1894   8.2453   8.2750   8.2886   8.3238   8.3811   8.5078   8.5613
    12.8600  13.4274  13.5697  13.6506  13.7815  13.8479  14.3554  14.4231
    14.5246  14.8068  14.8448  15.1136  15.2940  15.6642  15.8709  15.9098

          k = 0.2500 0.2416 0.1742 ( 10413 PWs)   bands (ev):

   -38.1684 -38.1647 -38.1633 -38.1597 -29.0634 -29.0608 -29.0579 -29.0552
   -16.5845 -16.5693 -16.5352 -16.5171 -16.4456 -16.4409 -16.4267 -16.4228
   -16.3338 -16.3191 -16.2926 -16.2828 -10.3694 -10.3198 -10.3060 -10.2821
   -10.2304 -10.2185 -10.2075 -10.1941 -10.1732 -10.1445 -10.1056 -10.0965
    -7.2600  -7.1617  -7.0393  -6.9704  -6.7332  -6.7055  -6.6594  -6.6365
    -6.3105  -6.2683  -6.1923  -6.1526   5.2102   5.3154   5.3667   5.4958
     5.5452   5.6538   5.7381   5.9000   6.0104   6.1804   6.3194   6.4223
     6.4795   6.5673   6.7220   6.8960   6.9455   7.0939   7.2033   7.2587
     7.3491   7.4285   7.5187   7.6717   7.7607   7.9092   7.9699   8.1231
     8.1309   8.1897   8.2704   8.3286   8.3656   8.4035   8.4411   8.5256
    13.0582  13.4649  13.6281  13.6978  13.7960  13.8991  14.3776  14.4027
    14.4888  14.6911  14.7911  14.9965  15.4303  15.7452  15.8026  15.9629

          k = 0.2500 0.2416-0.3483 ( 10424 PWs)   bands (ev):

   -38.1666 -38.1666 -38.1615 -38.1615 -29.0621 -29.0621 -29.0566 -29.0566
   -16.5746 -16.5746 -16.4616 -16.4616 -16.4395 -16.4395 -16.4202 -16.4202
   -16.4047 -16.4047 -16.2887 -16.2887 -10.3405 -10.3405 -10.2803 -10.2803
   -10.2207 -10.2207 -10.2052 -10.2052 -10.1741 -10.1741 -10.1010 -10.1010
    -7.1948  -7.1948  -6.8397  -6.8397  -6.6800  -6.6800  -6.6364  -6.6364
    -6.5400  -6.5400  -6.1730  -6.1730   5.2823   5.2823   5.5908   5.5908
     5.7970   5.7970   6.0643   6.0643   6.1461   6.1461   6.3428   6.3428
     6.3907   6.3907   6.5860   6.5860   6.6878   6.6878   7.1901   7.1901
     7.4411   7.4411   7.4749   7.4749   7.7236   7.7236   8.1065   8.1065
     8.2198   8.2198   8.2970   8.2970   8.4097   8.4097   8.5217   8.5217
    13.4699  13.4699  13.5793  13.5793  14.0208  14.0208  14.2192  14.2192
    14.5578  14.5578  14.8117  14.8117  15.6678  15.6678  15.9008  15.9012

          k = 0.2500-0.4833 0.0000 ( 10424 PWs)   bands (ev):

   -38.1666 -38.1666 -38.1614 -38.1614 -29.0614 -29.0614 -29.0573 -29.0573
   -16.5788 -16.5788 -16.5338 -16.5338 -16.5269 -16.5269 -16.3340 -16.3340
   -16.3295 -16.3295 -16.2790 -16.2790 -10.3814 -10.3814 -10.2676 -10.2676
   -10.2670 -10.2670 -10.1503 -10.1503 -10.1388 -10.1388 -10.1256 -10.1256
    -7.1403  -7.1403  -7.0507  -7.0507  -6.9886  -6.9886  -6.4289  -6.4289
    -6.2781  -6.2781  -6.1238  -6.1238   5.1971   5.1971   5.2876   5.2876
     5.5041   5.5041   5.6867   5.6867   6.1089   6.1089   6.5009   6.5009
     6.6778   6.6778   7.0420   7.0420   7.1377   7.1377   7.2841   7.2841
     7.3720   7.3720   7.5899   7.5899   7.6085   7.6085   8.0423   8.0423
     8.0847   8.0847   8.1758   8.1758   8.4278   8.4278   8.4557   8.4557
    13.1267  13.1267  13.7547  13.7547  13.9848  13.9848  14.3515  14.3515
    14.5513  14.5513  14.9885  14.9885  15.7067  15.7068  16.0784  16.0813

          k = 0.2500-0.4833 0.1742 ( 10428 PWs)   bands (ev):

   -38.1658 -38.1658 -38.1622 -38.1622 -29.0608 -29.0608 -29.0579 -29.0579
   -16.5550 -16.5550 -16.5352 -16.5352 -16.5109 -16.5109 -16.3418 -16.3418
   -16.3322 -16.3322 -16.3112 -16.3112 -10.3646 -10.3646 -10.2882 -10.2882
   -10.2445 -10.2445 -10.1674 -10.1674 -10.1369 -10.1369 -10.1269 -10.1269
    -7.0621  -7.0621  -7.0383  -7.0383  -6.9487  -6.9487  -6.4378  -6.4378
    -6.3012  -6.3012  -6.2419  -6.2419   5.3220   5.3220   5.5057   5.5057
     5.5534   5.5534   5.7328   5.7328   6.1509   6.1509   6.4150   6.4150
     6.5218   6.5218   6.8419   6.8419   6.9966   6.9966   7.0911   7.0911
     7.4424   7.4424   7.6326   7.6326   7.8402   7.8402   7.9791   7.9791
     8.0982   8.0982   8.1894   8.1894   8.2983   8.2983   8.4854   8.4854
    13.2778  13.2778  13.7395  13.7395  14.0647  14.0647  14.3554  14.3554
    14.5421  14.5421  14.8564  14.8564  15.7364  15.7365  16.0094  16.0096

          k = 0.2500-0.4833-0.3483 ( 10424 PWs)   bands (ev):

   -38.1640 -38.1640 -38.1640 -38.1640 -29.0594 -29.0594 -29.0594 -29.0594
   -16.5395 -16.5395 -16.5395 -16.5395 -16.4284 -16.4284 -16.4284 -16.4284
   -16.3274 -16.3274 -16.3274 -16.3274 -10.3256 -10.3256 -10.3256 -10.3256
   -10.2054 -10.2054 -10.2054 -10.2054 -10.1322 -10.1322 -10.1322 -10.1322
    -7.0338  -7.0338  -7.0338  -7.0338  -6.6677  -6.6677  -6.6677  -6.6677
    -6.3232  -6.3232  -6.3232  -6.3232   5.5209   5.5209   5.5209   5.5209
     5.8082   5.8082   5.8082   5.8082   6.2825   6.2825   6.2825   6.2825
     6.4782   6.4782   6.4782   6.4782   6.9342   6.9342   6.9342   6.9342
     7.4844   7.4844   7.4844   7.4844   7.9065   7.9065   7.9065   7.9065
     8.1497   8.1497   8.1497   8.1497   8.4454   8.4454   8.4454   8.4454
    13.5826  13.5826  13.5826  13.5826  14.2474  14.2474  14.2474  14.2474
    14.6078  14.6078  14.6078  14.6078  15.8684  15.8684  15.8684  15.8685

          k =-0.5000 0.0000 0.0000 ( 10408 PWs)   bands (ev):

   -38.1666 -38.1666 -38.1614 -38.1614 -29.0617 -29.0617 -29.0570 -29.0570
   -16.5722 -16.5722 -16.4458 -16.4458 -16.4441 -16.4441 -16.4273 -16.4273
   -16.4199 -16.4199 -16.2814 -16.2814 -10.3193 -10.3193 -10.2902 -10.2902
   -10.2218 -10.2218 -10.1980 -10.1980 -10.1654 -10.1654 -10.1371 -10.1371
    -7.1362  -7.1362  -6.7924  -6.7924  -6.7176  -6.7176  -6.6273  -6.6273
    -6.6180  -6.6180  -6.1524  -6.1524   5.3006   5.3006   5.4964   5.4964
     5.8894   5.8894   5.9637   5.9637   6.1726   6.1726   6.3616   6.3616
     6.4134   6.4134   6.4642   6.4642   6.6115   6.6115   7.3994   7.3994
     7.4140   7.4140   7.5606   7.5606   7.8118   7.8118   8.1130   8.1130
     8.2165   8.2165   8.2923   8.2923   8.3494   8.3494   8.4114   8.4114
    13.4772  13.4773  13.8070  13.8070  13.8100  13.8100  14.2886  14.2886
    14.4602  14.4602  14.8531  14.8531  15.7683  15.7684  15.8425  15.8426

          k =-0.5000 0.0000 0.1742 ( 10436 PWs)   bands (ev):

   -38.1659 -38.1659 -38.1622 -38.1622 -29.0613 -29.0613 -29.0574 -29.0574
   -16.5353 -16.5353 -16.4464 -16.4464 -16.4438 -16.4438 -16.4240 -16.4240
   -16.4228 -16.4228 -16.3226 -16.3226 -10.3036 -10.3036 -10.2781 -10.2781
   -10.2332 -10.2332 -10.1971 -10.1971 -10.1693 -10.1693 -10.1482 -10.1482
    -7.0143  -7.0143  -6.7779  -6.7779  -6.7054  -6.7054  -6.6379  -6.6379
    -6.6308  -6.6308  -6.2972  -6.2972   5.4875   5.4875   5.7251   5.7251
     5.9324   5.9324   5.9679   5.9679   6.1820   6.1820   6.3450   6.3450
     6.4100   6.4100   6.4900   6.4900   6.5666   6.5666   6.9668   6.9668
     7.1378   7.1378   7.4900   7.4900   7.9302   7.9302   8.1772   8.1772
     8.1947   8.1947   8.3143   8.3143   8.3787   8.3787   8.4714   8.4714
    13.5893  13.5893  13.8355  13.8355  13.9287  13.9287  14.2406  14.2406
    14.4661  14.4661  14.6142  14.6142  15.6105  15.6105  15.9939  15.9942

          k =-0.5000 0.0000-0.3483 ( 10476 PWs)   bands (ev):

   -38.1640 -38.1640 -38.1640 -38.1640 -29.0607 -29.0607 -29.0579 -29.0579
   -16.4637 -16.4637 -16.4603 -16.4603 -16.4352 -16.4352 -16.4342 -16.4342
   -16.4040 -16.4040 -16.4018 -16.4018 -10.2753 -10.2753 -10.2637 -10.2637
   -10.2567 -10.2567 -10.1926 -10.1926 -10.1822 -10.1822 -10.1569 -10.1569
    -6.8035  -6.8035  -6.7617  -6.7617  -6.6802  -6.6802  -6.6634  -6.6634
    -6.6090  -6.6090  -6.5650  -6.5650   5.7507   5.7507   5.7987   5.7987
     6.0347   6.0347   6.1745   6.1745   6.2793   6.2793   6.3462   6.3462
     6.4352   6.4352   6.4562   6.4562   6.5505   6.5505   6.7127   6.7127
     6.8627   6.8627   6.9341   6.9341   7.9493   7.9493   8.2169   8.2169
     8.2514   8.2514   8.4380   8.4380   8.4421   8.4421   8.4687   8.4687
    13.7510  13.7510  13.9783  13.9783  14.0694  14.0695  14.1288  14.1288
    14.2740  14.2740  14.4277  14.4277  15.5648  15.5648  16.1175  16.1178

          k =-0.5000 0.2416 0.0000 ( 10424 PWs)   bands (ev):

   -38.1666 -38.1666 -38.1614 -38.1614 -29.0616 -29.0616 -29.0571 -29.0571
   -16.5800 -16.5800 -16.5343 -16.5343 -16.5265 -16.5265 -16.3340 -16.3340
   -16.3295 -16.3295 -16.2791 -16.2791 -10.3925 -10.3925 -10.2709 -10.2709
   -10.2655 -10.2655 -10.1457 -10.1457 -10.1400 -10.1400 -10.1187 -10.1187
    -7.1180  -7.1180  -7.0506  -7.0506  -7.0074  -7.0074  -6.4188  -6.4188
    -6.2771  -6.2771  -6.1242  -6.1242   5.1691   5.1691   5.2955   5.2955
     5.4964   5.4964   5.6490   5.6490   6.2538   6.2538   6.4520   6.4520
     6.5152   6.5152   6.9624   6.9624   7.0881   7.0881   7.3101   7.3101
     7.3314   7.3314   7.8116   7.8116   7.8170   7.8170   7.9291   7.9291
     7.9967   7.9967   8.2267   8.2267   8.4192   8.4192   8.4588   8.4588
    13.1705  13.1705  13.7264  13.7264  13.9097  13.9097  14.3630  14.3630
    14.5280  14.5280  15.0203  15.0203  15.7253  15.7254  16.0164  16.0167

          k =-0.5000 0.2416 0.1742 ( 10420 PWs)   bands (ev):

   -38.1658 -38.1658 -38.1622 -38.1622 -29.0611 -29.0611 -29.0576 -29.0576
   -16.5559 -16.5559 -16.5355 -16.5355 -16.5109 -16.5109 -16.3418 -16.3418
   -16.3322 -16.3322 -16.3114 -16.3114 -10.3742 -10.3742 -10.2871 -10.2871
   -10.2516 -10.2516 -10.1595 -10.1595 -10.1387 -10.1387 -10.1197 -10.1197
    -7.0678  -7.0678  -7.0146  -7.0146  -6.9625  -6.9625  -6.4236  -6.4236
    -6.3084  -6.3084  -6.2388  -6.2388   5.2815   5.2815   5.5129   5.5129
     5.5509   5.5509   5.7021   5.7021   6.2199   6.2199   6.4324   6.4324
     6.5241   6.5241   6.6788   6.6788   6.8971   6.8971   7.1565   7.1565
     7.5618   7.5618   7.6449   7.6449   7.8938   7.8938   7.9434   7.9434
     8.0739   8.0739   8.1808   8.1808   8.3192   8.3192   8.5187   8.5187
    13.3167  13.3167  13.7182  13.7182  13.9876  13.9876  14.3610  14.3610
    14.5169  14.5169  14.8721  14.8721  15.6733  15.6733  16.0064  16.0064

          k =-0.5000 0.2416-0.3483 ( 10424 PWs)   bands (ev):

   -38.1640 -38.1640 -38.1640 -38.1640 -29.0603 -29.0603 -29.0584 -29.0584
   -16.5411 -16.5411 -16.5385 -16.5385 -16.4289 -16.4289 -16.4286 -16.4286
   -16.3275 -16.3275 -16.3272 -16.3272 -10.3398 -10.3398 -10.3197 -10.3197
   -10.2308 -10.2308 -10.1797 -10.1797 -10.1373 -10.1373 -10.1210 -10.1210
    -7.0690  -7.0690  -6.9963  -6.9963  -6.6893  -6.6893  -6.6302  -6.6302
    -6.3552  -6.3552  -6.2953  -6.2953   5.4826   5.4826   5.4854   5.4854
     5.7251   5.7251   5.8953   5.8953   6.2684   6.2684   6.3498   6.3498
     6.4779   6.4779   6.5554   6.5554   6.7047   6.7047   7.0297   7.0297
     7.3501   7.3501   7.5927   7.5927   7.9019   7.9019   8.0032   8.0032
     8.0276   8.0276   8.2003   8.2003   8.4703   8.4703   8.4924   8.4924
    13.5627  13.5627  13.6342  13.6342  14.1524  14.1524  14.2076  14.2076
    14.5777  14.5777  14.6585  14.6585  15.6362  15.6362  16.1546  16.1639

          k =-0.5000-0.4833 0.0000 ( 10444 PWs)   bands (ev):

   -38.1666 -38.1666 -38.1614 -38.1614 -29.0615 -29.0615 -29.0572 -29.0572
   -16.5961 -16.5961 -16.5756 -16.5756 -16.5500 -16.5500 -16.2957 -16.2957
   -16.2895 -16.2895 -16.2690 -16.2690 -10.4451 -10.4451 -10.2875 -10.2875
   -10.2482 -10.2482 -10.1575 -10.1575 -10.1078 -10.1078 -10.0877 -10.0877
    -7.2065  -7.2065  -7.1985  -7.1985  -7.0068  -7.0068  -6.3577  -6.3577
    -6.1132  -6.1132  -6.0658  -6.0658   4.9728   4.9728   5.2181   5.2181
     5.2251   5.2251   5.4143   5.4143   6.6566   6.6566   6.7100   6.7100
     6.8177   6.8177   7.0326   7.0326   7.0521   7.0521   7.3162   7.3162
     7.3454   7.3454   7.3786   7.3786   7.6071   7.6071   7.8434   7.8434
     8.1684   8.1684   8.4376   8.4376   8.4378   8.4378   8.5241   8.5241
    12.9394  12.9394  13.6509  13.6509  13.9679  13.9679  14.2376  14.2376
    14.7224  14.7224  15.1632  15.1633  15.7015  15.7015  15.9996  16.0005

          k =-0.5000-0.4833 0.1742 ( 10440 PWs)   bands (ev):

   -38.1658 -38.1658 -38.1622 -38.1622 -29.0609 -29.0609 -29.0578 -29.0578
   -16.5859 -16.5859 -16.5764 -16.5764 -16.5205 -16.5205 -16.3309 -16.3309
   -16.2880 -16.2880 -16.2785 -16.2785 -10.4212 -10.4212 -10.3103 -10.3103
   -10.2343 -10.2343 -10.1698 -10.1698 -10.1051 -10.1051 -10.0912 -10.0912
    -7.1928  -7.1928  -7.1614  -7.1614  -6.9314  -6.9314  -6.3970  -6.3970
    -6.1514  -6.1514  -6.1340  -6.1340   5.0918   5.0918   5.2756   5.2756
     5.2788   5.2788   5.6309   5.6309   6.2846   6.2846   6.7253   6.7253
     6.8126   6.8126   6.8889   6.8889   6.9454   6.9454   7.3018   7.3018
     7.3160   7.3160   7.5120   7.5120   7.6805   7.6805   8.0636   8.0636
     8.0999   8.0999   8.2859   8.2859   8.3663   8.3663   8.4908   8.4908
    13.1139  13.1139  13.6245  13.6245  14.0292  14.0292  14.2767  14.2767
    14.7167  14.7167  15.0411  15.0411  15.7869  15.7870  15.9620  15.9623

          k =-0.5000-0.4833-0.3483 ( 10424 PWs)   bands (ev):

   -38.1640 -38.1640 -38.1640 -38.1640 -29.0594 -29.0594 -29.0594 -29.0594
   -16.5790 -16.5790 -16.5790 -16.5790 -16.4290 -16.4290 -16.4290 -16.4290
   -16.2842 -16.2842 -16.2842 -16.2842 -10.3651 -10.3651 -10.3651 -10.3651
   -10.2013 -10.2013 -10.2013 -10.2013 -10.0985 -10.0985 -10.0985 -10.0985
    -7.1642  -7.1642  -7.1642  -7.1642  -6.6534  -6.6534  -6.6534  -6.6534
    -6.1760  -6.1760  -6.1760  -6.1760   5.2279   5.2279   5.2279   5.2279
     5.6347   5.6347   5.6347   5.6347   6.3285   6.3285   6.3285   6.3285
     6.7996   6.7996   6.7996   6.7996   7.1087   7.1087   7.1087   7.1087
     7.3614   7.3614   7.3614   7.3614   7.8598   7.8598   7.8598   7.8598
     8.2495   8.2495   8.2495   8.2495   8.4079   8.4079   8.4079   8.4079
    13.4453  13.4453  13.4453  13.4453  14.1891  14.1891  14.1891  14.1891
    14.8102  14.8103  14.8103  14.8103  15.9066  15.9067  15.9068  15.9076

     the Fermi energy is     9.4740 ev

!    total energy              =   -1433.82290777 Ry
     estimated scf accuracy    <          1.7E-10 Ry
     smearing contrib. (-TS)   =      -0.00000000 Ry
     internal energy E=F+TS    =   -1433.82290777 Ry

     The total energy is F=E-TS. E is the sum of the following terms:
     one-electron contribution =    -240.64423304 Ry
     hartree contribution      =     210.10666384 Ry
     xc contribution           =    -210.33561970 Ry
     ewald contribution        =    -838.84290037 Ry
     one-center paw contrib.   =    -354.10681849 Ry

     convergence has been achieved in  15 iterations

     negative rho (up, down):  2.685E-01 0.000E+00

     Forces acting on atoms (cartesian axes, Ry/au):

     atom    1 type  1   force =    -0.00049800    0.00182226    0.00000000
     atom    2 type  1   force =    -0.00049800   -0.00182226    0.00000000
     atom    3 type  1   force =     0.00049800    0.00182226    0.00000000
     atom    4 type  1   force =     0.00049800   -0.00182226    0.00000000
     atom    5 type  2   force =     0.00000000    0.00000000    0.00000000
     atom    6 type  2   force =    -0.00000000    0.00000000    0.00000000
     atom    7 type  2   force =     0.00000000    0.00000000    0.00000000
     atom    8 type  2   force =    -0.00000000   -0.00000000    0.00000000
     atom    9 type  3   force =     0.00076366   -0.00124376   -0.00180469
     atom   10 type  3   force =     0.00076366    0.00124376    0.00180469
     atom   11 type  3   force =    -0.00076366   -0.00124376    0.00180469
     atom   12 type  3   force =    -0.00076366    0.00124376   -0.00180469
     atom   13 type  3   force =    -0.00076366    0.00124376    0.00180469
     atom   14 type  3   force =    -0.00076366   -0.00124376   -0.00180469
     atom   15 type  3   force =     0.00076366    0.00124376   -0.00180469
     atom   16 type  3   force =     0.00076366   -0.00124376    0.00180469
     atom   17 type  3   force =     0.00222269   -0.00022982    0.00000000
     atom   18 type  3   force =     0.00222269    0.00022982    0.00000000
     atom   19 type  3   force =    -0.00222269   -0.00022982    0.00000000
     atom   20 type  3   force =    -0.00222269    0.00022982    0.00000000

     Total force =     0.008795     Total SCF correction =     0.000019


     Computing stress (Cartesian axis) and pressure


     negative rho (up, down):  2.685E-01 0.000E+00
          total   stress  (Ry/bohr**3)                   (kbar)     P=       23.44
   0.00015293   0.00000000   0.00000000           22.50        0.00        0.00
   0.00000000   0.00015741   0.00000000            0.00       23.16        0.00
   0.00000000   0.00000000   0.00016763            0.00        0.00       24.66


     BFGS Geometry Optimization
     Energy error            =      0.0E+00
     Gradient error          =      2.2E-03
     Cell gradient error     =      1.7E-04


     number of scf cycles    =   1
     number of bfgs steps    =   0

     enthalpy new            =   -1433.8229077653 Ry

     new trust radius        =       0.0350213478 bohr
     new conv_thr            =       0.0000000100 Ry

     new unit-cell volume =   1766.91934 a.u.^3 (   261.83043 Ang^3 )
     density =      4.54849 g/cm^3

CELL_PARAMETERS (angstrom)
   5.606359116  -0.000000000   0.000000000
   0.000000000   5.800835444   0.000000000
   0.000000000   0.000000000   8.050978475

ATOMIC_POSITIONS (angstrom)
Ca            0.0756656370        5.5004031478        2.0127446187
Ca            2.8788451948        3.2008500175        6.0382338560
Ca            2.7275139208        2.5999854261        2.0127446187
Ca            5.5306934786        0.3004322957        6.0382338560
Zr            0.0000000000        2.9004177218        0.0000000000
Zr            2.8031795578        0.0000000000        0.0000000000
Zr            2.8031795578        0.0000000000        4.0254892373
Zr           -0.0000000000        2.9004177218        4.0254892373
O             1.6956274861        4.0617100688        3.5689697209
O             4.4988070439        4.6395430966        4.4820087538
O             1.1075520717        1.1612923470        0.4565195165
O             3.9107316295        1.7391253748        7.5944589582
O             3.9107316295        1.7391253748        4.4820087538
O             1.1075520717        1.1612923470        3.5689697209
O             4.4988070439        4.6395430966        7.5944589582
O             1.6956274861        4.0617100688        0.4565195165
O             3.4033783078        0.2409541874        2.0127446187
O             0.6001987500        2.6594635343        6.0382338560
O             5.0061603655        3.1413719092        2.0127446187
O             2.2029808078        5.5598812561        6.0382338560



     Writing output data file ./out/CaO3Zr.save/
     NEW-OLD atomic charge density approx. for the potential

     Check: negative core charge=   -0.000003

     negative rho (up, down):  2.717E-01 0.000E+00
     extrapolated charge  161.89643, renormalised to  160.00000

     total cpu time spent up to now is     4657.0 secs

     Self-consistent Calculation

     iteration #  1     ecut=    50.00 Ry     beta= 0.30
     Davidson diagonalization with overlap
     c_bands:  2 eigenvalues not converged
     ethr =  1.00E-06,  avg # of iterations = 11.9

     negative rho (up, down):  2.681E-01 0.000E+00

     total cpu time spent up to now is     5287.9 secs

     total energy              =   -1433.78186993 Ry
     estimated scf accuracy    <       0.03653397 Ry

     iteration #  2     ecut=    50.00 Ry     beta= 0.30
     Davidson diagonalization with overlap
     ethr =  2.28E-05,  avg # of iterations =  3.8

     negative rho (up, down):  2.683E-01 0.000E+00

     total cpu time spent up to now is     5589.7 secs

     total energy              =   -1433.82662213 Ry
     estimated scf accuracy    <       0.03298355 Ry

     iteration #  3     ecut=    50.00 Ry     beta= 0.30
     Davidson diagonalization with overlap
     ethr =  2.06E-05,  avg # of iterations =  1.9

     negative rho (up, down):  2.685E-01 0.000E+00

     total cpu time spent up to now is     5762.5 secs

     total energy              =   -1433.82300580 Ry
     estimated scf accuracy    <       0.01354291 Ry

     iteration #  4     ecut=    50.00 Ry     beta= 0.30
     Davidson diagonalization with overlap
     ethr =  8.46E-06,  avg # of iterations =  2.4

     negative rho (up, down):  2.686E-01 0.000E+00

     total cpu time spent up to now is     5966.7 secs

     total energy              =   -1433.82506803 Ry
     estimated scf accuracy    <       0.00106330 Ry

     iteration #  5     ecut=    50.00 Ry     beta= 0.30
     Davidson diagonalization with overlap
     ethr =  6.65E-07,  avg # of iterations =  7.7

     negative rho (up, down):  2.686E-01 0.000E+00

     total cpu time spent up to now is     6216.4 secs

     total energy              =   -1433.82483939 Ry
     estimated scf accuracy    <       0.00113626 Ry

     iteration #  6     ecut=    50.00 Ry     beta= 0.30
     Davidson diagonalization with overlap
     ethr =  6.65E-07,  avg # of iterations =  2.0

     negative rho (up, down):  2.687E-01 0.000E+00

     total cpu time spent up to now is     6406.8 secs

     total energy              =   -1433.82455650 Ry
     estimated scf accuracy    <       0.00046475 Ry

     iteration #  7     ecut=    50.00 Ry     beta= 0.30
     Davidson diagonalization with overlap
     ethr =  2.90E-07,  avg # of iterations =  4.5

     negative rho (up, down):  2.687E-01 0.000E+00

     total cpu time spent up to now is     6683.0 secs

     total energy              =   -1433.82483802 Ry
     estimated scf accuracy    <       0.00022242 Ry

     iteration #  8     ecut=    50.00 Ry     beta= 0.30
     Davidson diagonalization with overlap
     ethr =  1.39E-07,  avg # of iterations =  1.2

     negative rho (up, down):  2.687E-01 0.000E+00

     total cpu time spent up to now is     6851.8 secs

     total energy              =   -1433.82483587 Ry
     estimated scf accuracy    <       0.00019118 Ry

     iteration #  9     ecut=    50.00 Ry     beta= 0.30
     Davidson diagonalization with overlap
     ethr =  1.19E-07,  avg # of iterations =  1.0

     negative rho (up, down):  2.687E-01 0.000E+00

     total cpu time spent up to now is     7008.8 secs

     total energy              =   -1433.82476942 Ry
     estimated scf accuracy    <       0.00017772 Ry

     iteration # 10     ecut=    50.00 Ry     beta= 0.30
     Davidson diagonalization with overlap
     ethr =  1.11E-07,  avg # of iterations =  2.0

     negative rho (up, down):  2.686E-01 0.000E+00

     total cpu time spent up to now is     7216.5 secs

     total energy              =   -1433.82478338 Ry
     estimated scf accuracy    <       0.00001426 Ry

     iteration # 11     ecut=    50.00 Ry     beta= 0.30
     Davidson diagonalization with overlap
     ethr =  8.91E-09,  avg # of iterations =  5.7

     negative rho (up, down):  2.686E-01 0.000E+00

     total cpu time spent up to now is     7526.0 secs

     total energy              =   -1433.82481291 Ry
     estimated scf accuracy    <       0.00003655 Ry

     iteration # 12     ecut=    50.00 Ry     beta= 0.30
     Davidson diagonalization with overlap
     ethr =  8.91E-09,  avg # of iterations =  2.0

     negative rho (up, down):  2.687E-01 0.000E+00

     total cpu time spent up to now is     7727.8 secs

     total energy              =   -1433.82477089 Ry
     estimated scf accuracy    <       0.00006892 Ry

     iteration # 13     ecut=    50.00 Ry     beta= 0.30
     Davidson diagonalization with overlap
     ethr =  8.91E-09,  avg # of iterations =  6.1

     negative rho (up, down):  2.687E-01 0.000E+00

     total cpu time spent up to now is     8074.0 secs

     total energy              =   -1433.82479162 Ry
     estimated scf accuracy    <       0.00001028 Ry

     iteration # 14     ecut=    50.00 Ry     beta= 0.30
     Davidson diagonalization with overlap
     ethr =  6.42E-09,  avg # of iterations =  1.3

     negative rho (up, down):  2.687E-01 0.000E+00

     total cpu time spent up to now is     8234.9 secs

     total energy              =   -1433.82479259 Ry
     estimated scf accuracy    <       0.00000243 Ry

     iteration # 15     ecut=    50.00 Ry     beta= 0.30
     Davidson diagonalization with overlap
     ethr =  1.52E-09,  avg # of iterations =  1.6

     negative rho (up, down):  2.687E-01 0.000E+00

     total cpu time spent up to now is     8403.7 secs

     total energy              =   -1433.82479167 Ry
     estimated scf accuracy    <       0.00000317 Ry

     iteration # 16     ecut=    50.00 Ry     beta= 0.30
     Davidson diagonalization with overlap
     ethr =  1.52E-09,  avg # of iterations =  2.1

     negative rho (up, down):  2.687E-01 0.000E+00

     total cpu time spent up to now is     8601.0 secs

     total energy              =   -1433.82479172 Ry
     estimated scf accuracy    <       0.00000065 Ry

     iteration # 17     ecut=    50.00 Ry     beta= 0.30
     Davidson diagonalization with overlap
     ethr =  4.06E-10,  avg # of iterations =  5.2

     negative rho (up, down):  2.687E-01 0.000E+00

     total cpu time spent up to now is     8887.6 secs

     End of self-consistent calculation

          k = 0.0000 0.0000 0.0000 ( 10385 PWs)   bands (ev):

   -38.3980 -38.3931 -38.3884 -38.3837 -29.2634 -29.2603 -29.2536 -29.2502
   -16.7933 -16.7783 -16.7612 -16.7577 -16.7526 -16.7203 -16.5177 -16.5163
   -16.5075 -16.5027 -16.4853 -16.4842 -10.5815 -10.5178 -10.5089 -10.4816
   -10.4629 -10.4208 -10.3555 -10.3176 -10.3089 -10.3087 -10.2939 -10.2919
    -7.7836  -7.3712  -7.2273  -7.2237  -7.1434  -7.1068  -6.5210  -6.3823
    -6.3820  -6.3170  -6.2327  -6.1966   4.8060   5.0528   5.0550   5.1365
     5.1732   5.2115   5.3087   5.3761   5.4681   5.7081   6.5193   6.6761
     6.8216   6.8881   6.9267   6.9718   6.9883   7.0859   7.1088   7.1753
     7.2118   7.3472   7.6507   7.7010   7.9103   7.9237   8.0344   8.0419
     8.0617   8.0903   8.2770   8.2789   8.2994   8.3791   8.4240   8.4893
    12.4913  12.6428  12.6453  13.0193  13.4784  13.8521  14.0492  14.2605
    14.4469  14.4868  14.5145  14.8351  15.2863  15.3456  15.4691  15.5167

          k = 0.0000 0.0000 0.1734 ( 10438 PWs)   bands (ev):

   -38.3973 -38.3938 -38.3877 -38.3844 -29.2629 -29.2608 -29.2531 -29.2507
   -16.7804 -16.7730 -16.7602 -16.7557 -16.7279 -16.6947 -16.5495 -16.5255
   -16.5161 -16.5080 -16.5013 -16.4919 -10.5544 -10.5097 -10.5058 -10.4818
   -10.4732 -10.4013 -10.3902 -10.3258 -10.3163 -10.3088 -10.2933 -10.2920
    -7.6869  -7.3165  -7.2953  -7.2326  -7.0653  -7.0295  -6.5971  -6.4870
    -6.3684  -6.3114  -6.2834  -6.2443   4.8882   5.0805   5.1761   5.2214
     5.2437   5.3148   5.3423   5.4837   5.5560   5.7438   6.3068   6.3946
     6.6967   6.7826   6.7956   6.9394   7.0352   7.0954   7.1903   7.2310
     7.2365   7.5359   7.5726   7.6429   7.7326   7.8406   7.9876   8.0112
     8.1395   8.1844   8.2678   8.2911   8.3091   8.3238   8.3391   8.3949
    12.6476  12.6846  12.8286  13.0503  13.4389  13.8657  13.9318  14.4328
    14.4918  14.5072  14.6554  14.8014  14.9936  15.3584  15.5707  15.6148

          k = 0.0000 0.0000-0.3469 ( 10426 PWs)   bands (ev):

   -38.3956 -38.3956 -38.3861 -38.3861 -29.2618 -29.2618 -29.2519 -29.2519
   -16.7663 -16.7663 -16.7646 -16.7646 -16.6398 -16.6398 -16.6151 -16.6151
   -16.5123 -16.5123 -16.4976 -16.4976 -10.5066 -10.5066 -10.4915 -10.4915
   -10.4617 -10.4617 -10.3624 -10.3624 -10.3128 -10.3128 -10.2924 -10.2924
    -7.4759  -7.4759  -7.2596  -7.2596  -6.8198  -6.8198  -6.7927  -6.7927
    -6.3332  -6.3332  -6.2925  -6.2925   5.0813   5.0813   5.1347   5.1347
     5.3206   5.3206   5.7372   5.7372   5.8364   5.8364   6.1813   6.1813
     6.2661   6.2661   7.0357   7.0357   7.0825   7.0825   7.3268   7.3268
     7.3657   7.3657   7.4432   7.4432   7.4810   7.4810   8.1620   8.1620
     8.1881   8.1881   8.2663   8.2663   8.2962   8.2962   8.3450   8.3450
    12.7538  12.7538  13.2020  13.2020  13.3739  13.3739  14.1746  14.1746
    14.6211  14.6212  14.7958  14.7958  15.2403  15.2404  15.4832  15.5956

          k = 0.0000 0.2407 0.0000 ( 10417 PWs)   bands (ev):

   -38.3966 -38.3917 -38.3898 -38.3851 -29.2621 -29.2587 -29.2552 -29.2516
   -16.7742 -16.7667 -16.7361 -16.7227 -16.7192 -16.7053 -16.5567 -16.5454
   -16.5436 -16.5408 -16.4953 -16.4878 -10.5412 -10.4927 -10.4798 -10.4647
   -10.4488 -10.4286 -10.3512 -10.3491 -10.3484 -10.3344 -10.3185 -10.3150
    -7.5869  -7.2671  -7.1269  -7.1180  -7.0997  -7.0978  -6.5329  -6.5293
    -6.4911  -6.4570  -6.3087  -6.2992   5.0691   5.1030   5.1809   5.2942
     5.3693   5.5128   5.5275   5.5583   5.5997   5.8689   6.0456   6.2768
     6.6381   6.7187   6.7714   6.8386   6.9894   7.0536   7.1999   7.2165
     7.4158   7.4778   7.5177   7.6835   7.7039   7.7790   7.8486   7.8795
     7.9442   8.0281   8.0918   8.0936   8.1325   8.2654   8.3606   8.4559
    12.7624  12.9415  13.0807  13.3813  13.6199  13.7574  14.1547  14.2094
    14.4390  14.5642  14.6726  14.7457  14.7994  15.4774  15.6136  15.6583

          k = 0.0000 0.2407 0.1734 ( 10410 PWs)   bands (ev):

   -38.3959 -38.3925 -38.3891 -38.3858 -29.2616 -29.2592 -29.2546 -29.2521
   -16.7527 -16.7414 -16.7253 -16.7230 -16.7218 -16.6887 -16.5577 -16.5550
   -16.5475 -16.5397 -16.5265 -16.5220 -10.5199 -10.4865 -10.4767 -10.4640
   -10.4579 -10.4080 -10.3879 -10.3483 -10.3408 -10.3363 -10.3287 -10.3164
    -7.4988  -7.1821  -7.1792  -7.1091  -7.0679  -7.0202  -6.5834  -6.5242
    -6.5104  -6.4534  -6.4396  -6.3800   5.1451   5.3381   5.3671   5.4114
     5.4359   5.4877   5.5376   5.6322   5.6352   5.8610   6.1713   6.3242
     6.4465   6.4488   6.6969   6.7200   6.7779   6.9179   7.0106   7.2790
     7.3596   7.4189   7.5874   7.7210   7.7235   7.7932   7.7972   7.8740
     7.9704   7.9783   8.0916   8.1277   8.2169   8.2929   8.3475   8.3791
    12.9333  13.0896  13.1244  13.3641  13.5993  13.8516  13.9564  14.2786
    14.4915  14.5167  14.6068  14.7043  14.9670  15.4570  15.6204  15.6646

          k = 0.0000 0.2407-0.3469 ( 10416 PWs)   bands (ev):

   -38.3942 -38.3942 -38.3875 -38.3875 -29.2604 -29.2604 -29.2534 -29.2534
   -16.7312 -16.7312 -16.7303 -16.7303 -16.6390 -16.6390 -16.6169 -16.6169
   -16.5508 -16.5508 -16.5360 -16.5360 -10.4808 -10.4808 -10.4720 -10.4720
   -10.4451 -10.4451 -10.3709 -10.3709 -10.3412 -10.3412 -10.3250 -10.3250
    -7.3202  -7.3202  -7.1256  -7.1256  -6.8052  -6.8052  -6.7935  -6.7935
    -6.5052  -6.5052  -6.4412  -6.4412   5.3198   5.3198   5.4163   5.4163
     5.5980   5.5980   5.8468   5.8468   5.8746   5.8746   6.1610   6.1610
     6.2478   6.2478   6.5858   6.5858   6.7811   6.7811   6.9886   6.9886
     7.1539   7.1539   7.5991   7.5991   7.7891   7.7891   7.9271   7.9271
     7.9562   7.9562   8.1800   8.1800   8.3127   8.3127   8.3387   8.3387
    13.1918  13.1918  13.4029  13.4029  13.4884  13.4884  14.1486  14.1486
    14.4401  14.4401  14.6205  14.6205  15.4545  15.4545  15.5317  15.5317

          k = 0.0000-0.4814 0.0000 ( 10444 PWs)   bands (ev):

   -38.3932 -38.3932 -38.3884 -38.3884 -29.2588 -29.2588 -29.2551 -29.2551
   -16.7638 -16.7638 -16.6510 -16.6510 -16.6427 -16.6427 -16.6284 -16.6284
   -16.6264 -16.6264 -16.4931 -16.4931 -10.4687 -10.4687 -10.4530 -10.4530
   -10.4127 -10.4127 -10.4012 -10.4012 -10.3728 -10.3728 -10.3375 -10.3375
    -7.2894  -7.2894  -6.9387  -6.9387  -6.8602  -6.8602  -6.7755  -6.7755
    -6.7754  -6.7754  -6.3329  -6.3329   5.1786   5.1786   5.5109   5.5109
     5.5644   5.5644   5.9932   5.9932   6.1538   6.1538   6.1969   6.1969
     6.2479   6.2479   6.4285   6.4285   6.6489   6.6489   6.9927   6.9927
     7.3405   7.3405   7.4770   7.4770   7.6103   7.6103   7.9035   7.9035
     7.9092   7.9092   8.0196   8.0196   8.3015   8.3015   8.3079   8.3079
    13.2779  13.2779  13.5835  13.5835  13.7479  13.7479  14.1816  14.1816
    14.2305  14.2305  14.4439  14.4439  15.4337  15.4337  15.8595  15.8600

          k = 0.0000-0.4814 0.1734 ( 10438 PWs)   bands (ev):

   -38.3925 -38.3925 -38.3891 -38.3891 -29.2582 -29.2582 -29.2556 -29.2556
   -16.7292 -16.7292 -16.6482 -16.6482 -16.6455 -16.6455 -16.6282 -16.6282
   -16.6264 -16.6264 -16.5316 -16.5316 -10.4605 -10.4605 -10.4364 -10.4364
   -10.4095 -10.4095 -10.4038 -10.4038 -10.3854 -10.3854 -10.3487 -10.3487
    -7.1724  -7.1724  -6.9122  -6.9122  -6.8668  -6.8668  -6.7907  -6.7907
    -6.7751  -6.7751  -6.4728  -6.4728   5.4319   5.4319   5.6338   5.6338
     5.6722   5.6722   5.9673   5.9673   6.1311   6.1311   6.2030   6.2030
     6.2763   6.2763   6.4633   6.4633   6.5793   6.5793   6.6615   6.6615
     6.9677   6.9677   7.2805   7.2805   7.8258   7.8258   8.0095   8.0095
     8.0245   8.0245   8.0901   8.0901   8.1696   8.1696   8.3314   8.3314
    13.4027  13.4027  13.6528  13.6528  13.8323  13.8323  14.0739  14.0739
    14.2478  14.2478  14.2926  14.2926  15.4918  15.4918  15.8089  15.8100

          k = 0.0000-0.4814-0.3469 ( 10424 PWs)   bands (ev):

   -38.3908 -38.3908 -38.3908 -38.3908 -29.2569 -29.2569 -29.2569 -29.2569
   -16.6616 -16.6616 -16.6616 -16.6616 -16.6366 -16.6366 -16.6366 -16.6366
   -16.6082 -16.6082 -16.6082 -16.6082 -10.4337 -10.4337 -10.4337 -10.4337
   -10.4107 -10.4107 -10.4107 -10.4107 -10.3769 -10.3769 -10.3769 -10.3769
    -6.9494  -6.9494  -6.9494  -6.9494  -6.7886  -6.7886  -6.7886  -6.7886
    -6.7658  -6.7658  -6.7658  -6.7658   5.7757   5.7757   5.7757   5.7757
     5.9312   5.9312   5.9312   5.9312   6.1162   6.1162   6.1162   6.1162
     6.3658   6.3658   6.3658   6.3658   6.5509   6.5509   6.5509   6.5509
     6.7187   6.7187   6.7187   6.7187   7.9906   7.9906   7.9906   7.9906
     8.0681   8.0681   8.0681   8.0681   8.3125   8.3125   8.3125   8.3125
    13.7113  13.7113  13.7113  13.7113  13.8944  13.8944  13.8944  13.8944
    14.1492  14.1492  14.1492  14.1492  15.6565  15.6565  15.6566  15.6566

          k = 0.2490 0.0000 0.0000 ( 10418 PWs)   bands (ev):

   -38.3966 -38.3917 -38.3898 -38.3851 -29.2621 -29.2590 -29.2549 -29.2515
   -16.7756 -16.7678 -16.7349 -16.7252 -16.7173 -16.7056 -16.5557 -16.5479
   -16.5418 -16.5414 -16.4952 -16.4878 -10.5441 -10.5307 -10.4734 -10.4430
   -10.4403 -10.4314 -10.3919 -10.3479 -10.3458 -10.3147 -10.3092 -10.3057
    -7.5728  -7.2959  -7.1148  -7.1116  -7.1015  -7.0760  -6.5604  -6.5143
    -6.4707  -6.4682  -6.3139  -6.2866   5.0950   5.1030   5.2029   5.2367
     5.4569   5.4650   5.5015   5.5249   5.5344   5.8835   5.9608   6.2056
     6.6793   6.7194   6.7902   6.8635   6.9626   7.0229   7.1085   7.1913
     7.4244   7.5065   7.5841   7.5912   7.6876   7.8476   7.9161   7.9365
     7.9889   8.0511   8.0702   8.2104   8.2277   8.2558   8.3564   8.3745
    12.7503  12.9494  12.9543  13.2831  13.6714  13.7745  14.1922  14.2629
    14.4272  14.5428  14.5687  14.8183  14.9770  15.3918  15.4700  15.7103

          k = 0.2490 0.0000 0.1734 ( 10423 PWs)   bands (ev):

   -38.3959 -38.3925 -38.3891 -38.3858 -29.2616 -29.2594 -29.2544 -29.2520
   -16.7537 -16.7418 -16.7272 -16.7230 -16.7203 -16.6888 -16.5571 -16.5541
   -16.5495 -16.5401 -16.5267 -16.5212 -10.5294 -10.5113 -10.4795 -10.4479
   -10.4417 -10.4195 -10.3935 -10.3608 -10.3515 -10.3281 -10.3073 -10.3061
    -7.4870  -7.2143  -7.1670  -7.1174  -7.0286  -7.0236  -6.5934  -6.5148
    -6.5021  -6.4703  -6.4068  -6.3954   5.1552   5.2779   5.3588   5.4391
     5.4690   5.4957   5.5109   5.5743   5.6564   5.8380   6.0547   6.2279
     6.4219   6.5305   6.6518   6.7635   6.8754   6.9079   7.1024   7.2429
     7.2618   7.4280   7.5072   7.5996   7.6768   7.8481   7.8913   7.8917
     8.0548   8.0568   8.1432   8.1497   8.2475   8.3211   8.3235   8.3869
    12.8970  12.9806  13.1163  13.2957  13.6658  13.8651  14.0114  14.2838
    14.4874  14.5364  14.5369  14.6784  15.0035  15.4864  15.5547  15.7426

          k = 0.2490 0.0000-0.3469 ( 10446 PWs)   bands (ev):

   -38.3942 -38.3942 -38.3875 -38.3875 -29.2605 -29.2605 -29.2532 -29.2532
   -16.7323 -16.7323 -16.7297 -16.7297 -16.6394 -16.6394 -16.6171 -16.6171
   -16.5515 -16.5515 -16.5354 -16.5354 -10.5014 -10.5014 -10.4590 -10.4590
   -10.4451 -10.4451 -10.3725 -10.3725 -10.3532 -10.3532 -10.3064 -10.3064
    -7.3116  -7.3116  -7.1352  -7.1352  -6.8051  -6.8051  -6.7836  -6.7836
    -6.4751  -6.4751  -6.4666  -6.4666   5.2735   5.2735   5.4431   5.4431
     5.6120   5.6120   5.7420   5.7420   5.9446   5.9446   6.1109   6.1109
     6.2183   6.2183   6.6856   6.6856   6.7689   6.7689   6.9444   6.9444
     7.1983   7.1983   7.4677   7.4677   7.7559   7.7559   7.9531   7.9531
     8.0290   8.0290   8.2541   8.2541   8.3076   8.3076   8.3738   8.3738
    13.0432  13.0432  13.4159  13.4159  13.5859  13.5859  14.1481  14.1481
    14.4492  14.4492  14.5255  14.5255  15.3949  15.3949  15.6739  15.6740

          k = 0.2490 0.2407 0.0000 ( 10420 PWs)   bands (ev):

   -38.3956 -38.3908 -38.3908 -38.3860 -29.2612 -29.2579 -29.2560 -29.2525
   -16.7884 -16.7663 -16.7628 -16.7418 -16.6465 -16.6457 -16.6322 -16.6239
   -16.5098 -16.5053 -16.4903 -16.4853 -10.5578 -10.5113 -10.4880 -10.4686
   -10.4300 -10.4065 -10.3885 -10.3785 -10.3494 -10.3243 -10.2997 -10.2876
    -7.4510  -7.2797  -7.2578  -7.2135  -6.8889  -6.8616  -6.8068  -6.7744
    -6.3706  -6.3383  -6.3152  -6.2969   5.0425   5.1241   5.1531   5.1546
     5.3333   5.3862   5.4562   5.7944   5.8266   6.0735   6.1862   6.2521
     6.4040   6.8278   6.8729   6.8960   6.9573   7.0592   7.0864   7.1468
     7.2433   7.2719   7.4182   7.5351   7.5569   7.6582   7.7386   8.0092
     8.0383   8.0811   8.1283   8.1294   8.1753   8.2330   8.3509   8.4047
    12.6667  13.2268  13.3640  13.4395  13.5687  13.6366  14.1312  14.1948
    14.3008  14.5772  14.6116  14.8807  15.0731  15.4730  15.6605  15.7039

          k = 0.2490 0.2407 0.1734 ( 10413 PWs)   bands (ev):

   -38.3949 -38.3915 -38.3901 -38.3867 -29.2607 -29.2583 -29.2555 -29.2530
   -16.7786 -16.7646 -16.7312 -16.7145 -16.6479 -16.6437 -16.6298 -16.6261
   -16.5420 -16.5285 -16.5039 -16.4948 -10.5465 -10.5008 -10.4885 -10.4632
   -10.4183 -10.4062 -10.3936 -10.3819 -10.3639 -10.3371 -10.2979 -10.2891
    -7.3962  -7.2929  -7.1701  -7.1066  -6.8787  -6.8523  -6.8122  -6.7869
    -6.4749  -6.4346  -6.3624  -6.3228   5.0921   5.1984   5.2567   5.3739
     5.4361   5.5276   5.6225   5.7834   5.8922   6.0448   6.1773   6.2808
     6.3479   6.4335   6.5897   6.7614   6.8077   6.9569   7.0618   7.1228
     7.2118   7.2921   7.3796   7.5341   7.6170   7.7639   7.8271   7.9752
     7.9864   8.0447   8.1145   8.1774   8.2140   8.2533   8.2908   8.3705
    12.8613  13.2629  13.4196  13.4902  13.5863  13.6846  14.1567  14.1810
    14.2598  14.4624  14.5621  14.7662  15.2136  15.5508  15.5944  15.7569

          k = 0.2490 0.2407-0.3469 ( 10424 PWs)   bands (ev):

   -38.3932 -38.3932 -38.3884 -38.3884 -29.2595 -29.2595 -29.2543 -29.2543
   -16.7696 -16.7696 -16.6625 -16.6625 -16.6411 -16.6411 -16.6237 -16.6237
   -16.6093 -16.6093 -16.5002 -16.5002 -10.5200 -10.5200 -10.4629 -10.4629
   -10.4081 -10.4081 -10.3928 -10.3928 -10.3647 -10.3647 -10.2935 -10.2935
    -7.3281  -7.3281  -6.9817  -6.9817  -6.8294  -6.8294  -6.7848  -6.7848
    -6.6957  -6.6957  -6.3431  -6.3431   5.1616   5.1616   5.4813   5.4813
     5.6785   5.6785   5.9413   5.9413   6.0148   6.0148   6.2090   6.2090
     6.2573   6.2573   6.4477   6.4477   6.5457   6.5457   7.0529   7.0529
     7.3052   7.3052   7.3394   7.3394   7.5870   7.5870   7.9572   7.9572
     8.0736   8.0736   8.1441   8.1441   8.2602   8.2602   8.3701   8.3701
    13.2655  13.2655  13.3743  13.3743  13.8093  13.8093  14.0006  14.0006
    14.3269  14.3269  14.5861  14.5861  15.4571  15.4571  15.6939  15.6940

          k = 0.2490-0.4814 0.0000 ( 10424 PWs)   bands (ev):

   -38.3932 -38.3932 -38.3884 -38.3884 -29.2589 -29.2589 -29.2550 -29.2550
   -16.7723 -16.7723 -16.7311 -16.7311 -16.7247 -16.7247 -16.5427 -16.5427
   -16.5383 -16.5383 -16.4910 -16.4910 -10.5560 -10.5560 -10.4533 -10.4533
   -10.4526 -10.4526 -10.3425 -10.3425 -10.3295 -10.3295 -10.3162 -10.3162
    -7.2707  -7.2707  -7.1836  -7.1836  -7.1299  -7.1299  -6.5890  -6.5890
    -6.4434  -6.4434  -6.2963  -6.2963   5.0928   5.0928   5.1718   5.1718
     5.3790   5.3790   5.5536   5.5536   5.9911   5.9911   6.3792   6.3792
     6.5546   6.5546   6.8942   6.8942   6.9991   6.9991   7.1550   7.1550
     7.2297   7.2297   7.4511   7.4511   7.4558   7.4558   7.8930   7.8930
     7.9385   7.9385   8.0306   8.0306   8.2779   8.2779   8.2962   8.2962
    12.9273  12.9273  13.5475  13.5475  13.7675  13.7675  14.1273  14.1273
    14.3251  14.3251  14.7585  14.7585  15.5053  15.5053  15.8718  15.8755

          k = 0.2490-0.4814 0.1734 ( 10428 PWs)   bands (ev):

   -38.3925 -38.3925 -38.3891 -38.3891 -29.2583 -29.2583 -29.2556 -29.2556
   -16.7504 -16.7504 -16.7323 -16.7323 -16.7091 -16.7091 -16.5495 -16.5495
   -16.5410 -16.5410 -16.5215 -16.5215 -10.5409 -10.5409 -10.4715 -10.4715
   -10.4320 -10.4320 -10.3587 -10.3587 -10.3276 -10.3276 -10.3177 -10.3177
    -7.1960  -7.1960  -7.1729  -7.1729  -7.0900  -7.0900  -6.5972  -6.5972
    -6.4662  -6.4662  -6.4088  -6.4088   5.2131   5.2131   5.3831   5.3831
     5.4317   5.4317   5.5989   5.5989   6.0323   6.0323   6.2926   6.2926
     6.4010   6.4010   6.7157   6.7157   6.8583   6.8583   6.9438   6.9438
     7.2936   7.2936   7.4860   7.4860   7.6975   7.6975   7.8305   7.8305
     7.9505   7.9505   8.0432   8.0432   8.1517   8.1517   8.3333   8.3333
    13.0761  13.0761  13.5324  13.5324  13.8471  13.8471  14.1327  14.1327
    14.3166  14.3166  14.6276  14.6276  15.5357  15.5358  15.7955  15.7959

          k = 0.2490-0.4814-0.3469 ( 10424 PWs)   bands (ev):

   -38.3908 -38.3908 -38.3908 -38.3908 -29.2569 -29.2569 -29.2569 -29.2569
   -16.7364 -16.7364 -16.7364 -16.7364 -16.6308 -16.6308 -16.6308 -16.6308
   -16.5366 -16.5366 -16.5366 -16.5366 -10.5055 -10.5055 -10.5055 -10.5055
   -10.3948 -10.3948 -10.3948 -10.3948 -10.3229 -10.3229 -10.3229 -10.3229
    -7.1698  -7.1698  -7.1698  -7.1698  -6.8179  -6.8179  -6.8179  -6.8179
    -6.4869  -6.4869  -6.4869  -6.4869   5.3958   5.3958   5.3958   5.3958
     5.6936   5.6936   5.6936   5.6936   6.1531   6.1531   6.1531   6.1531
     6.3467   6.3467   6.3467   6.3467   6.8035   6.8035   6.8035   6.8035
     7.3365   7.3365   7.3365   7.3365   7.7588   7.7588   7.7588   7.7588
     8.0060   8.0060   8.0060   8.0060   8.2955   8.2955   8.2955   8.2955
    13.3770  13.3770  13.3770  13.3770  14.0270  14.0270  14.0270  14.0270
    14.3832  14.3832  14.3832  14.3832  15.6614  15.6614  15.6615  15.6615

          k =-0.4981 0.0000 0.0000 ( 10408 PWs)   bands (ev):

   -38.3932 -38.3932 -38.3884 -38.3884 -29.2591 -29.2591 -29.2547 -29.2547
   -16.7660 -16.7660 -16.6484 -16.6484 -16.6467 -16.6467 -16.6304 -16.6304
   -16.6233 -16.6233 -16.4931 -16.4931 -10.4979 -10.4979 -10.4748 -10.4748
   -10.4089 -10.4089 -10.3869 -10.3869 -10.3526 -10.3526 -10.3301 -10.3301
    -7.2708  -7.2708  -6.9380  -6.9380  -6.8631  -6.8631  -6.7782  -6.7782
    -6.7704  -6.7704  -6.3238  -6.3238   5.1818   5.1818   5.3878   5.3878
     5.7730   5.7730   5.8380   5.8380   6.0411   6.0411   6.2245   6.2245
     6.2782   6.2782   6.3255   6.3255   6.4727   6.4727   7.2641   7.2641
     7.2774   7.2774   7.4148   7.4148   7.6770   7.6770   7.9731   7.9731
     8.0676   8.0676   8.1432   8.1432   8.1939   8.1939   8.2649   8.2649
    13.2747  13.2747  13.5935  13.5935  13.6066  13.6066  14.0657  14.0657
    14.2313  14.2313  14.6250  14.6250  15.5689  15.5689  15.6107  15.6108

          k =-0.4981 0.0000 0.1734 ( 10436 PWs)   bands (ev):

   -38.3925 -38.3925 -38.3891 -38.3891 -29.2587 -29.2587 -29.2551 -29.2551
   -16.7312 -16.7312 -16.6488 -16.6488 -16.6464 -16.6464 -16.6273 -16.6273
   -16.6259 -16.6259 -16.5318 -16.5318 -10.4836 -10.4836 -10.4632 -10.4632
   -10.4194 -10.4194 -10.3860 -10.3860 -10.3574 -10.3574 -10.3397 -10.3397
    -7.1541  -7.1541  -6.9243  -6.9243  -6.8514  -6.8514  -6.7886  -6.7886
    -6.7820  -6.7820  -6.4619  -6.4619   5.3688   5.3688   5.6071   5.6071
     5.8057   5.8057   5.8486   5.8486   6.0527   6.0527   6.2110   6.2110
     6.2745   6.2745   6.3529   6.3529   6.4305   6.4305   6.8334   6.8334
     7.0041   7.0041   7.3367   7.3367   7.7936   7.7936   8.0310   8.0310
     8.0533   8.0533   8.1702   8.1702   8.2279   8.2279   8.3219   8.3219
    13.3864  13.3864  13.6311  13.6311  13.7140  13.7140  14.0195  14.0195
    14.2391  14.2391  14.3898  14.3898  15.4148  15.4148  15.7670  15.7671

          k =-0.4981 0.0000-0.3469 ( 10476 PWs)   bands (ev):

   -38.3908 -38.3908 -38.3908 -38.3908 -29.2582 -29.2582 -29.2556 -29.2556
   -16.6643 -16.6643 -16.6613 -16.6613 -16.6376 -16.6376 -16.6367 -16.6367
   -16.6087 -16.6087 -16.6067 -16.6067 -10.4577 -10.4577 -10.4487 -10.4487
   -10.4418 -10.4418 -10.3817 -10.3817 -10.3717 -10.3717 -10.3459 -10.3459
    -6.9546  -6.9546  -6.9112  -6.9112  -6.8248  -6.8248  -6.8139  -6.8139
    -6.7578  -6.7578  -6.7180  -6.7180   5.6320   5.6320   5.6750   5.6750
     5.9062   5.9062   6.0431   6.0431   6.1570   6.1570   6.2088   6.2088
     6.3020   6.3020   6.3170   6.3170   6.4215   6.4215   6.5905   6.5905
     6.7190   6.7190   6.7899   6.7899   7.8136   7.8136   8.0751   8.0751
     8.1022   8.1022   8.2862   8.2862   8.2972   8.2972   8.3212   8.3212
    13.5506  13.5506  13.7689  13.7689  13.8551  13.8551  13.9135  13.9135
    14.0522  14.0522  14.1986  14.1986  15.3677  15.3677  15.8995  15.8995

          k =-0.4981 0.2407 0.0000 ( 10424 PWs)   bands (ev):

   -38.3932 -38.3932 -38.3884 -38.3884 -29.2590 -29.2590 -29.2548 -29.2548
   -16.7735 -16.7735 -16.7315 -16.7315 -16.7242 -16.7242 -16.5427 -16.5427
   -16.5383 -16.5383 -16.4911 -16.4911 -10.5666 -10.5666 -10.4570 -10.4570
   -10.4508 -10.4508 -10.3382 -10.3382 -10.3306 -10.3306 -10.3095 -10.3095
    -7.2480  -7.2480  -7.1833  -7.1833  -7.1488  -7.1488  -6.5798  -6.5798
    -6.4425  -6.4425  -6.2966  -6.2966   5.0649   5.0649   5.1782   5.1782
     5.3708   5.3708   5.5179   5.5179   6.1341   6.1341   6.3309   6.3309
     6.3904   6.3904   6.8201   6.8201   6.9449   6.9449   7.1713   7.1713
     7.1984   7.1984   7.6586   7.6586   7.6748   7.6748   7.7895   7.7895
     7.8508   7.8508   8.0798   8.0798   8.2605   8.2605   8.3080   8.3080
    12.9701  12.9701  13.5209  13.5209  13.6951  13.6951  14.1368  14.1368
    14.3004  14.3004  14.7874  14.7874  15.5302  15.5302  15.7998  15.7999

          k =-0.4981 0.2407 0.1734 ( 10420 PWs)   bands (ev):

   -38.3925 -38.3925 -38.3891 -38.3891 -29.2585 -29.2585 -29.2553 -29.2553
   -16.7512 -16.7512 -16.7326 -16.7326 -16.7091 -16.7091 -16.5495 -16.5495
   -16.5411 -16.5411 -16.5216 -16.5216 -10.5500 -10.5500 -10.4707 -10.4707
   -10.4387 -10.4387 -10.3513 -10.3513 -10.3295 -10.3295 -10.3105 -10.3105
    -7.2011  -7.2011  -7.1471  -7.1471  -7.1060  -7.1060  -6.5839  -6.5839
    -6.4734  -6.4734  -6.4058  -6.4058   5.1726   5.1726   5.3873   5.3873
     5.4297   5.4297   5.5706   5.5706   6.0996   6.0996   6.3082   6.3082
     6.4015   6.4015   6.5551   6.5551   6.7596   6.7596   7.0066   7.0066
     7.4120   7.4120   7.4977   7.4977   7.7554   7.7554   7.7994   7.7994
     7.9272   7.9272   8.0350   8.0350   8.1706   8.1706   8.3660   8.3660
    13.1141  13.1141  13.5126  13.5126  13.7728  13.7728  14.1376  14.1376
    14.2899  14.2899  14.6418  14.6418  15.4789  15.4789  15.7968  15.7968

          k =-0.4981 0.2407-0.3469 ( 10424 PWs)   bands (ev):

   -38.3908 -38.3908 -38.3908 -38.3908 -29.2578 -29.2578 -29.2560 -29.2560
   -16.7378 -16.7378 -16.7355 -16.7355 -16.6313 -16.6313 -16.6310 -16.6310
   -16.5367 -16.5367 -16.5365 -16.5365 -10.5185 -10.5185 -10.5007 -10.5007
   -10.4188 -10.4188 -10.3706 -10.3706 -10.3282 -10.3282 -10.3118 -10.3118
    -7.2032  -7.2032  -7.1328  -7.1328  -6.8410  -6.8410  -6.7801  -6.7801
    -6.5181  -6.5181  -6.4602  -6.4602   5.3597   5.3597   5.3619   5.3619
     5.6068   5.6068   5.7792   5.7792   6.1301   6.1301   6.2186   6.2186
     6.3508   6.3508   6.4295   6.4295   6.5796   6.5796   6.8929   6.8929
     7.2029   7.2029   7.4409   7.4409   7.7634   7.7634   7.8547   7.8547
     7.8855   7.8855   8.0576   8.0576   8.3172   8.3172   8.3431   8.3431
    13.3583  13.3583  13.4273  13.4273  13.9354  13.9354  13.9901  13.9901
    14.3505  14.3505  14.4311  14.4311  15.4398  15.4398  15.9379  15.9477

          k =-0.4981-0.4814 0.0000 ( 10444 PWs)   bands (ev):

   -38.3932 -38.3932 -38.3884 -38.3884 -29.2590 -29.2590 -29.2549 -29.2549
   -16.7892 -16.7892 -16.7704 -16.7704 -16.7460 -16.7460 -16.5063 -16.5063
   -16.5010 -16.5010 -16.4818 -16.4818 -10.6157 -10.6157 -10.4720 -10.4720
   -10.4363 -10.4363 -10.3490 -10.3490 -10.2999 -10.2999 -10.2808 -10.2808
    -7.3325  -7.3325  -7.3210  -7.3210  -7.1524  -7.1524  -6.5216  -6.5216
    -6.2856  -6.2856  -6.2409  -6.2409   4.8699   4.8699   5.1010   5.1010
     5.1120   5.1120   5.2851   5.2851   6.5286   6.5286   6.5877   6.5877
     6.6936   6.6936   6.8905   6.8905   6.9205   6.9205   7.1726   7.1726
     7.2166   7.2166   7.2505   7.2505   7.4637   7.4637   7.7032   7.7032
     7.9944   7.9944   8.2787   8.2787   8.2892   8.2892   8.3660   8.3660
    12.7423  12.7423  13.4439  13.4439  13.7499  13.7499  14.0139  14.0140
    14.4905  14.4905  14.9243  14.9243  15.5101  15.5101  15.8076  15.8080

          k =-0.4981-0.4814 0.1734 ( 10440 PWs)   bands (ev):

   -38.3925 -38.3925 -38.3891 -38.3891 -29.2584 -29.2584 -29.2555 -29.2555
   -16.7801 -16.7801 -16.7712 -16.7712 -16.7177 -16.7177 -16.5392 -16.5392
   -16.4996 -16.4996 -16.4907 -16.4907 -10.5939 -10.5939 -10.4928 -10.4928
   -10.4230 -10.4230 -10.3608 -10.3608 -10.2974 -10.2974 -10.2840 -10.2840
    -7.3202  -7.3202  -7.2886  -7.2886  -7.0760  -7.0760  -6.5585  -6.5585
    -6.3233  -6.3233  -6.3058  -6.3058   4.9817   4.9817   5.1564   5.1564
     5.1662   5.1662   5.5015   5.5015   6.1646   6.1646   6.6007   6.6007
     6.6856   6.6856   6.7461   6.7461   6.8202   6.8202   7.1720   7.1720
     7.1731   7.1731   7.3708   7.3708   7.5448   7.5448   7.9209   7.9209
     7.9379   7.9379   8.1290   8.1290   8.2055   8.2055   8.3400   8.3400
    12.9138  12.9138  13.4179  13.4179  13.8109  13.8109  14.0531  14.0531
    14.4868  14.4868  14.8062  14.8062  15.5918  15.5918  15.7648  15.7649

          k =-0.4981-0.4814-0.3469 ( 10424 PWs)   bands (ev):

   -38.3908 -38.3908 -38.3908 -38.3908 -29.2569 -29.2569 -29.2569 -29.2569
   -16.7738 -16.7738 -16.7738 -16.7738 -16.6314 -16.6314 -16.6314 -16.6314
   -16.4960 -16.4960 -16.4960 -16.4960 -10.5428 -10.5428 -10.5428 -10.5428
   -10.3912 -10.3912 -10.3912 -10.3912 -10.2910 -10.2910 -10.2910 -10.2910
    -7.2938  -7.2938  -7.2938  -7.2938  -6.8045  -6.8045  -6.8045  -6.8045
    -6.3468  -6.3468  -6.3468  -6.3468   5.1074   5.1074   5.1074   5.1074
     5.5250   5.5250   5.5250   5.5250   6.1877   6.1877   6.1877   6.1877
     6.6733   6.6733   6.6733   6.6733   6.9793   6.9793   6.9793   6.9793
     7.2240   7.2240   7.2240   7.2240   7.7213   7.7213   7.7213   7.7213
     8.0838   8.0838   8.0838   8.0838   8.2594   8.2594   8.2594   8.2594
    13.2405  13.2405  13.2405  13.2405  13.9683  13.9683  13.9683  13.9683
    14.5807  14.5807  14.5807  14.5807  15.7060  15.7060  15.7061  15.7061

     the Fermi energy is     9.2566 ev

!    total energy              =   -1433.82479201 Ry
     estimated scf accuracy    <          6.4E-09 Ry
     smearing contrib. (-TS)   =      -0.00000000 Ry
     internal energy E=F+TS    =   -1433.82479201 Ry

     The total energy is F=E-TS. E is the sum of the following terms:
     one-electron contribution =    -245.38321917 Ry
[...]
    13.0203  13.0203  13.3888  13.3888  13.5558  13.5558  14.1164  14.1164
    14.4239  14.4239  14.5009  14.5009  15.3529  15.3529  15.6360  15.6360

          k = 0.2488 0.2408 0.0000 ( 10577 PWs)   bands (ev):

   -38.4241 -38.4194 -38.4193 -38.4147 -29.2980 -29.2947 -29.2928 -29.2893
   -16.8126 -16.7895 -16.7885 -16.7664 -16.6738 -16.6727 -16.6592 -16.6508
   -16.5359 -16.5329 -16.5169 -16.5128 -10.5887 -10.5458 -10.5208 -10.5018
   -10.4660 -10.4415 -10.4229 -10.4125 -10.3862 -10.3611 -10.3360 -10.3239
    -7.4716  -7.3031  -7.2729  -7.2306  -6.9104  -6.8851  -6.8314  -6.7985
    -6.3947  -6.3609  -6.3398  -6.3204   5.0247   5.1106   5.1335   5.1383
     5.3151   5.3679   5.4400   5.7775   5.8032   6.0532   6.1620   6.2283
     6.3800   6.8098   6.8591   6.8687   6.9308   7.0385   7.0620   7.1271
     7.2183   7.2532   7.3968   7.5184   7.5350   7.6332   7.7182   7.9935
     8.0152   8.0577   8.1050   8.1108   8.1559   8.2148   8.3301   8.3795
    12.6431  13.2032  13.3365  13.4123  13.5395  13.6181  14.1069  14.1633
    14.2690  14.5514  14.5819  14.8479  15.0327  15.4425  15.6229  15.8240

          k = 0.2488 0.2408 0.1732 ( 10578 PWs)   bands (ev):

   -38.4234 -38.4201 -38.4187 -38.4153 -29.2974 -29.2951 -29.2924 -29.2899
   -16.8041 -16.7912 -16.7538 -16.7382 -16.6748 -16.6711 -16.6569 -16.6529
   -16.5675 -16.5544 -16.5315 -16.5227 -10.5778 -10.5342 -10.5222 -10.4966
   -10.4542 -10.4413 -10.4277 -10.4164 -10.4003 -10.3738 -10.3342 -10.3254
    -7.4184  -7.3162  -7.1861  -7.1234  -6.8991  -6.8760  -6.8374  -6.8105
    -6.4961  -6.4577  -6.3864  -6.3473   5.0717   5.1766   5.2371   5.3600
     5.4172   5.5143   5.6066   5.7611   5.8743   6.0252   6.1531   6.2575
     6.3246   6.4107   6.5697   6.7399   6.7890   6.9372   7.0419   7.1002
     7.1916   7.2689   7.3607   7.5154   7.5969   7.7402   7.8064   7.9557
     7.9625   8.0230   8.0914   8.1555   8.1950   8.2315   8.2686   8.3492
    12.8380  13.2389  13.3929  13.4620  13.5664  13.6560  14.1247  14.1572
    14.2281  14.4360  14.5349  14.7361  15.1712  15.5172  15.5572  15.7192

          k = 0.2488 0.2408-0.3464 ( 10564 PWs)   bands (ev):

   -38.4217 -38.4217 -38.4170 -38.4170 -29.2962 -29.2962 -29.2912 -29.2912
   -16.7960 -16.7960 -16.6877 -16.6877 -16.6662 -16.6662 -16.6497 -16.6497
   -16.6356 -16.6356 -16.5279 -16.5279 -10.5521 -10.5521 -10.4970 -10.4970
   -10.4430 -10.4430 -10.4276 -10.4276 -10.4009 -10.4009 -10.3298 -10.3298
    -7.3514  -7.3514  -7.0006  -7.0006  -6.8523  -6.8523  -6.8037  -6.8037
    -6.7191  -6.7191  -6.3674  -6.3674   5.1393   5.1393   5.4618   5.4618
     5.6596   5.6596   5.9228   5.9228   5.9965   5.9965   6.1898   6.1898
     6.2381   6.2381   6.4259   6.4259   6.5247   6.5247   7.0329   7.0329
     7.2861   7.2861   7.3171   7.3171   7.5671   7.5671   7.9365   7.9365
     8.0503   8.0503   8.1231   8.1231   8.2387   8.2387   8.3465   8.3465
    13.2436  13.2436  13.3487  13.3487  13.7803  13.7803  13.9724  13.9724
    14.2972  14.2972  14.5595  14.5595  15.4180  15.4180  15.6582  15.6582

          k = 0.2488-0.4816 0.0000 ( 10564 PWs)   bands (ev):

   -38.4217 -38.4217 -38.4170 -38.4170 -29.2956 -29.2956 -29.2918 -29.2918
   -16.7950 -16.7950 -16.7578 -16.7578 -16.7511 -16.7511 -16.5702 -16.5702
   -16.5653 -16.5653 -16.5177 -16.5177 -10.5871 -10.5871 -10.4888 -10.4888
   -10.4865 -10.4865 -10.3791 -10.3791 -10.3652 -10.3652 -10.3518 -10.3518
    -7.2859  -7.2859  -7.2066  -7.2066  -7.1538  -7.1538  -6.6106  -6.6106
    -6.4679  -6.4679  -6.3201  -6.3201   5.0777   5.0777   5.1598   5.1598
     5.3562   5.3562   5.5301   5.5301   5.9753   5.9753   6.3567   6.3567
     6.5358   6.5358   6.8726   6.8726   6.9735   6.9735   7.1370   7.1370
     7.2056   7.2056   7.4316   7.4316   7.4328   7.4328   7.8661   7.8661
     7.9170   7.9170   8.0112   8.0112   8.2589   8.2589   8.2713   8.2713
    12.9048  12.9048  13.5294  13.5294  13.7350  13.7350  14.0976  14.0976
    14.2964  14.2964  14.7288  14.7288  15.4706  15.4707  15.8424  15.8426

          k = 0.2488-0.4816 0.1732 ( 10570 PWs)   bands (ev):

   -38.4210 -38.4210 -38.4177 -38.4177 -29.2951 -29.2951 -29.2924 -29.2924
   -16.7749 -16.7749 -16.7590 -16.7590 -16.7341 -16.7341 -16.5753 -16.5753
   -16.5685 -16.5685 -16.5488 -16.5488 -10.5723 -10.5723 -10.5050 -10.5050
   -10.4676 -10.4676 -10.3951 -10.3951 -10.3634 -10.3634 -10.3533 -10.3533
    -7.2166  -7.2166  -7.1951  -7.1951  -7.1103  -7.1103  -6.6179  -6.6179
    -6.4909  -6.4909  -6.4322  -6.4322   5.1973   5.1973   5.3643   5.3643
     5.4114   5.4114   5.5792   5.5792   6.0148   6.0148   6.2716   6.2716
     6.3815   6.3815   6.6957   6.6957   6.8368   6.8368   6.9224   6.9224
     7.2716   7.2716   7.4630   7.4630   7.6778   7.6778   7.8062   7.8062
     7.9285   7.9285   8.0206   8.0206   8.1284   8.1284   8.3116   8.3116
    13.0541  13.0541  13.5133  13.5133  13.8143  13.8143  14.1026  14.1026
    14.2890  14.2890  14.5990  14.5990  15.5019  15.5019  15.7588  15.7593

          k = 0.2488-0.4816-0.3464 ( 10572 PWs)   bands (ev):

   -38.4194 -38.4194 -38.4194 -38.4194 -29.2937 -29.2937 -29.2937 -29.2937
   -16.7628 -16.7628 -16.7628 -16.7628 -16.6551 -16.6551 -16.6551 -16.6551
   -16.5642 -16.5642 -16.5642 -16.5642 -10.5379 -10.5379 -10.5379 -10.5379
   -10.4310 -10.4310 -10.4310 -10.4310 -10.3587 -10.3587 -10.3587 -10.3587
    -7.1930  -7.1930  -7.1930  -7.1930  -6.8364  -6.8364  -6.8364  -6.8364
    -6.5109  -6.5109  -6.5109  -6.5109   5.3750   5.3750   5.3750   5.3750
     5.6746   5.6746   5.6746   5.6746   6.1360   6.1360   6.1360   6.1360
     6.3273   6.3273   6.3273   6.3273   6.7834   6.7834   6.7834   6.7834
     7.3136   7.3136   7.3136   7.3136   7.7361   7.7361   7.7361   7.7361
     7.9856   7.9856   7.9856   7.9856   8.2711   8.2711   8.2711   8.2711
    13.3564  13.3564  13.3564  13.3564  13.9945  13.9945  13.9945  13.9945
    14.3562  14.3562  14.3562  14.3562  15.6258  15.6258  15.6268  15.6271

          k =-0.4976 0.0000 0.0000 ( 10588 PWs)   bands (ev):

   -38.4217 -38.4217 -38.4170 -38.4170 -29.2959 -29.2959 -29.2915 -29.2915
   -16.7880 -16.7880 -16.6754 -16.6754 -16.6736 -16.6736 -16.6577 -16.6577
   -16.6502 -16.6502 -16.5196 -16.5196 -10.5304 -10.5304 -10.5098 -10.5098
   -10.4437 -10.4437 -10.4222 -10.4222 -10.3862 -10.3862 -10.3671 -10.3671
    -7.2865  -7.2865  -6.9608  -6.9608  -6.8868  -6.8868  -6.8019  -6.8019
    -6.7946  -6.7946  -6.3464  -6.3464   5.1703   5.1703   5.3711   5.3711
     5.7554   5.7554   5.8152   5.8152   6.0167   6.0167   6.2013   6.2013
     6.2541   6.2541   6.3005   6.3005   6.4484   6.4484   7.2444   7.2444
     7.2631   7.2631   7.3823   7.3823   7.6565   7.6565   7.9649   7.9649
     8.0456   8.0456   8.1243   8.1243   8.1728   8.1728   8.2443   8.2443
    13.2530  13.2530  13.5593  13.5593  13.5914  13.5914  14.0408  14.0408
    14.2014  14.2014  14.5914  14.5914  15.5254  15.5255  15.5573  15.5574

          k =-0.4976 0.0000 0.1732 ( 10582 PWs)   bands (ev):

   -38.4210 -38.4210 -38.4177 -38.4177 -29.2955 -29.2955 -29.2919 -29.2919
   -16.7537 -16.7537 -16.6757 -16.6757 -16.6734 -16.6734 -16.6547 -16.6547
   -16.6527 -16.6527 -16.5578 -16.5578 -10.5165 -10.5165 -10.4982 -10.4982
   -10.4539 -10.4539 -10.4214 -10.4214 -10.3918 -10.3918 -10.3758 -10.3758
    -7.1709  -7.1709  -6.9472  -6.9472  -6.8750  -6.8750  -6.8125  -6.8125
    -6.8056  -6.8056  -6.4835  -6.4835   5.3539   5.3539   5.5918   5.5918
     5.7843   5.7843   5.8289   5.8289   6.0287   6.0287   6.1886   6.1886
     6.2491   6.2491   6.3286   6.3286   6.4083   6.4083   6.8142   6.8142
     6.9784   6.9784   7.3184   7.3184   7.7800   7.7800   8.0060   8.0060
     8.0413   8.0413   8.1493   8.1493   8.2046   8.2046   8.3021   8.3021
    13.3649  13.3649  13.6137  13.6137  13.6803  13.6803  13.9950  13.9950
    14.2105  14.2105  14.3573  14.3573  15.3753  15.3753  15.7107  15.7107

          k =-0.4976 0.0000-0.3464 ( 10640 PWs)   bands (ev):

   -38.4194 -38.4194 -38.4194 -38.4194 -29.2950 -29.2950 -29.2924 -29.2924
   -16.6894 -16.6894 -16.6865 -16.6865 -16.6638 -16.6638 -16.6631 -16.6631
   -16.6355 -16.6355 -16.6336 -16.6336 -10.4911 -10.4911 -10.4836 -10.4836
   -10.4760 -10.4760 -10.4174 -10.4174 -10.4073 -10.4073 -10.3806 -10.3806
    -6.9768  -6.9768  -6.9322  -6.9322  -6.8474  -6.8474  -6.8380  -6.8380
    -6.7775  -6.7775  -6.7405  -6.7405   5.6143   5.6143   5.6535   5.6535
     5.8855   5.8855   6.0222   6.0222   6.1366   6.1366   6.1869   6.1869
     6.2822   6.2822   6.2946   6.2946   6.3993   6.3993   6.5714   6.5714
     6.6957   6.6957   6.7670   6.7670   7.8032   7.8032   8.0622   8.0622
     8.0801   8.0801   8.2591   8.2591   8.2746   8.2746   8.3018   8.3018
    13.5341  13.5341  13.7458  13.7458  13.8290  13.8290  13.8790  13.8790
    14.0271  14.0271  14.1661  14.1661  15.3298  15.3299  15.8389  15.8389

          k =-0.4976 0.2408 0.0000 ( 10570 PWs)   bands (ev):

   -38.4217 -38.4217 -38.4170 -38.4170 -29.2958 -29.2958 -29.2916 -29.2916
   -16.7961 -16.7961 -16.7582 -16.7582 -16.7506 -16.7506 -16.5702 -16.5702
   -16.5653 -16.5653 -16.5178 -16.5178 -10.5979 -10.5979 -10.4924 -10.4924
   -10.4847 -10.4847 -10.3750 -10.3750 -10.3666 -10.3666 -10.3448 -10.3448
    -7.2624  -7.2624  -7.2064  -7.2064  -7.1725  -7.1725  -6.6030  -6.6030
    -6.4671  -6.4671  -6.3198  -6.3198   5.0488   5.0488   5.1663   5.1663
     5.3475   5.3475   5.4949   5.4949   6.1137   6.1137   6.3127   6.3127
     6.3647   6.3647   6.7998   6.7998   6.9193   6.9193   7.1498   7.1498
     7.1757   7.1757   7.6312   7.6312   7.6591   7.6591   7.7716   7.7716
     7.8302   7.8302   8.0609   8.0609   8.2360   8.2360   8.2903   8.2903
    12.9464  12.9464  13.5058  13.5058  13.6635  13.6635  14.1070  14.1070
    14.2743  14.2743  14.7552  14.7552  15.4916  15.4916  15.7602  15.7602

          k =-0.4976 0.2408 0.1732 ( 10590 PWs)   bands (ev):

   -38.4210 -38.4210 -38.4177 -38.4177 -29.2953 -29.2953 -29.2921 -29.2921
   -16.7756 -16.7756 -16.7593 -16.7593 -16.7341 -16.7341 -16.5753 -16.5753
   -16.5685 -16.5685 -16.5489 -16.5489 -10.5816 -10.5816 -10.5044 -10.5044
   -10.4741 -10.4741 -10.3880 -10.3880 -10.3654 -10.3654 -10.3459 -10.3459
    -7.2225  -7.2225  -7.1686  -7.1686  -7.1252  -7.1252  -6.6063  -6.6063
    -6.4973  -6.4973  -6.4293  -6.4293   5.1559   5.1559   5.3646   5.3646
     5.4122   5.4122   5.5515   5.5515   6.0780   6.0780   6.2865   6.2865
     6.3795   6.3795   6.5356   6.5356   6.7383   6.7383   6.9831   6.9831
     7.3904   7.3904   7.4759   7.4759   7.7350   7.7350   7.7812   7.7812
     7.9083   7.9083   8.0136   8.0136   8.1476   8.1476   8.3458   8.3458
    13.0910  13.0910  13.4959  13.4959  13.7412  13.7412  14.1088  14.1088
    14.2633  14.2633  14.6117  14.6117  15.4396  15.4396  15.7610  15.7618

          k =-0.4976 0.2408-0.3464 ( 10580 PWs)   bands (ev):

   -38.4194 -38.4194 -38.4194 -38.4194 -29.2946 -29.2946 -29.2928 -29.2928
   -16.7641 -16.7641 -16.7619 -16.7619 -16.6556 -16.6556 -16.6553 -16.6553
   -16.5643 -16.5643 -16.5641 -16.5641 -10.5506 -10.5506 -10.5337 -10.5337
   -10.4545 -10.4545 -10.4072 -10.4072 -10.3641 -10.3641 -10.3473 -10.3473
    -7.2254  -7.2254  -7.1563  -7.1563  -6.8599  -6.8599  -6.7986  -6.7986
    -6.5421  -6.5421  -6.4848  -6.4848   5.3377   5.3377   5.3424   5.3424
     5.5855   5.5855   5.7588   5.7588   6.1131   6.1131   6.1995   6.1995
     6.3289   6.3289   6.4087   6.4087   6.5585   6.5585   6.8740   6.8740
     7.1790   7.1790   7.4178   7.4178   7.7429   7.7429   7.8317   7.8317
     7.8723   7.8723   8.0386   8.0386   8.2934   8.2934   8.3199   8.3199
    13.3382  13.3382  13.4066  13.4066  13.9024  13.9024  13.9637  13.9637
    14.3217  14.3217  14.4039  14.4039  15.4007  15.4007  15.9208  15.9246

          k =-0.4976-0.4816 0.0000 ( 10588 PWs)   bands (ev):

   -38.4217 -38.4217 -38.4170 -38.4170 -29.2957 -29.2957 -29.2917 -29.2917
   -16.8135 -16.8135 -16.7970 -16.7970 -16.7706 -16.7706 -16.5324 -16.5324
   -16.5285 -16.5285 -16.5095 -16.5095 -10.6461 -10.6461 -10.5056 -10.5056
   -10.4721 -10.4721 -10.3855 -10.3855 -10.3364 -10.3364 -10.3170 -10.3170
    -7.3552  -7.3552  -7.3365  -7.3365  -7.1754  -7.1754  -6.5423  -6.5423
    -6.3104  -6.3104  -6.2658  -6.2658   4.8543   4.8543   5.0775   5.0775
     5.0954   5.0954   5.2666   5.2666   6.5090   6.5090   6.5730   6.5730
     6.6667   6.6667   6.8690   6.8690   6.9024   6.9024   7.1512   7.1512
     7.1950   7.1950   7.2259   7.2259   7.4406   7.4406   7.6792   7.6792
     7.9691   7.9691   8.2617   8.2617   8.2715   8.2715   8.3405   8.3405
    12.7197  12.7197  13.4293  13.4293  13.7173  13.7173  13.9844  13.9844
    14.4629  14.4629  14.8930  14.8930  15.4732  15.4732  15.8192  15.9551

          k =-0.4976-0.4816 0.1732 ( 10564 PWs)   bands (ev):

   -38.4210 -38.4210 -38.4177 -38.4177 -29.2951 -29.2951 -29.2923 -29.2923
   -16.8057 -16.8057 -16.7978 -16.7978 -16.7415 -16.7415 -16.5646 -16.5646
   -16.5272 -16.5272 -16.5186 -16.5186 -10.6247 -10.6247 -10.5258 -10.5258
   -10.4589 -10.4589 -10.3973 -10.3973 -10.3338 -10.3338 -10.3203 -10.3203
    -7.3429  -7.3429  -7.3083  -7.3083  -7.0954  -7.0954  -6.5782  -6.5782
    -6.3483  -6.3483  -6.3305  -6.3305   4.9644   4.9644   5.1344   5.1344
     5.1438   5.1438   5.4875   5.4875   6.1435   6.1435   6.5850   6.5850
     6.6644   6.6644   6.7256   6.7256   6.7983   6.7983   7.1499   7.1499
     7.1501   7.1501   7.3485   7.3485   7.5244   7.5244   7.8957   7.8957
     7.9161   7.9161   8.1037   8.1037   8.1874   8.1874   8.3192   8.3192
    12.8920  12.8920  13.4020  13.4020  13.7782  13.7782  14.0230  14.0230
    14.4604  14.4604  14.7774  14.7774  15.5546  15.5549  15.7265  15.7277

          k =-0.4976-0.4816-0.3464 ( 10552 PWs)   bands (ev):

   -38.4193 -38.4193 -38.4193 -38.4193 -29.2937 -29.2937 -29.2937 -29.2937
   -16.8002 -16.8002 -16.8002 -16.8002 -16.6556 -16.6556 -16.6556 -16.6556
   -16.5237 -16.5237 -16.5237 -16.5237 -10.5747 -10.5747 -10.5747 -10.5747
   -10.4274 -10.4274 -10.4274 -10.4274 -10.3274 -10.3274 -10.3274 -10.3274
    -7.3163  -7.3163  -7.3163  -7.3163  -6.8228  -6.8228  -6.8228  -6.8228
    -6.3714  -6.3714  -6.3714  -6.3714   5.0856   5.0856   5.0856   5.0856
     5.5056   5.5056   5.5056   5.5056   6.1714   6.1714   6.1714   6.1714
     6.6536   6.6536   6.6536   6.6536   6.9564   6.9564   6.9564   6.9564
     7.2022   7.2022   7.2022   7.2022   7.7009   7.7009   7.7009   7.7009
     8.0621   8.0621   8.0621   8.0621   8.2358   8.2358   8.2358   8.2358
    13.2214  13.2214  13.2214  13.2214  13.9365  13.9365  13.9365  13.9365
    14.5543  14.5543  14.5543  14.5543  15.6688  15.6690  15.6690  15.6691

     the Fermi energy is     9.2594 ev

!    total energy              =   -1433.82519624 Ry
     estimated scf accuracy    <          3.2E-11 Ry
     smearing contrib. (-TS)   =      -0.00000000 Ry
     internal energy E=F+TS    =   -1433.82519624 Ry

     The total energy is F=E-TS. E is the sum of the following terms:
     one-electron contribution =    -246.12242987 Ry
     hartree contribution      =     211.62381144 Ry
     xc contribution           =    -210.15749068 Ry
     ewald contribution        =    -835.05939011 Ry
     one-center paw contrib.   =    -354.10969703 Ry

     convergence has been achieved in  17 iterations

     negative rho (up, down):  2.688E-01 0.000E+00

     Forces acting on atoms (cartesian axes, Ry/au):

     atom    1 type  1   force =    -0.00002172   -0.00000695    0.00000000
     atom    2 type  1   force =    -0.00002172    0.00000695    0.00000000
     atom    3 type  1   force =     0.00002172   -0.00000695   -0.00000000
     atom    4 type  1   force =     0.00002172    0.00000695    0.00000000
     atom    5 type  2   force =     0.00000000    0.00000000    0.00000000
     atom    6 type  2   force =     0.00000000   -0.00000000    0.00000000
     atom    7 type  2   force =     0.00000000    0.00000000    0.00000000
     atom    8 type  2   force =    -0.00000000    0.00000000    0.00000000
     atom    9 type  3   force =    -0.00009759    0.00002363    0.00001933
     atom   10 type  3   force =    -0.00009759   -0.00002363   -0.00001933
     atom   11 type  3   force =     0.00009759    0.00002363   -0.00001933
     atom   12 type  3   force =     0.00009759   -0.00002363    0.00001933
     atom   13 type  3   force =     0.00009759   -0.00002363   -0.00001933
     atom   14 type  3   force =     0.00009759    0.00002363    0.00001933
     atom   15 type  3   force =    -0.00009759   -0.00002363    0.00001933
     atom   16 type  3   force =    -0.00009759    0.00002363   -0.00001933
     atom   17 type  3   force =     0.00002965    0.00004340    0.00000000
     atom   18 type  3   force =     0.00002965   -0.00004340    0.00000000
     atom   19 type  3   force =    -0.00002965    0.00004340    0.00000000
     atom   20 type  3   force =    -0.00002965   -0.00004340    0.00000000

     Total force =     0.000311     Total SCF correction =     0.000005


     Computing stress (Cartesian axis) and pressure


     negative rho (up, down):  2.688E-01 0.000E+00
          total   stress  (Ry/bohr**3)                   (kbar)     P=       -0.02
  -0.00000105   0.00000000   0.00000000           -0.16        0.00        0.00
   0.00000000  -0.00000021   0.00000000            0.00       -0.03        0.00
   0.00000000   0.00000000   0.00000096            0.00        0.00        0.14


     Writing output data file ./out/CaO3Zr.save/

     init_run     :    121.24s CPU    160.98s WALL (       2 calls)
     electrons    :  23145.55s CPU  33980.16s WALL (      12 calls)
     update_pot   :    150.84s CPU    227.12s WALL (      10 calls)
     forces       :    406.22s CPU    592.68s WALL (      12 calls)
     stress       :    590.10s CPU    873.24s WALL (      12 calls)

     Called by init_run:
     wfcinit      :     93.27s CPU    123.27s WALL (       2 calls)
     potinit      :      9.79s CPU     13.27s WALL (       2 calls)
     hinit0       :     16.52s CPU     21.36s WALL (       2 calls)

     Called by electrons:
     c_bands      :  21318.77s CPU  31254.52s WALL (     145 calls)
     sum_band     :   1571.03s CPU   2341.56s WALL (     145 calls)
     v_of_rho     :     28.55s CPU     42.32s WALL (     149 calls)
     newd         :    104.58s CPU    162.86s WALL (     149 calls)
     PAW_pot      :    136.19s CPU    200.28s WALL (     159 calls)
     mix_rho      :      6.36s CPU      9.74s WALL (     145 calls)

     Called by c_bands:
     init_us_2    :     28.69s CPU     44.65s WALL (    4564 calls)
     cegterg      :  20495.48s CPU  30030.69s WALL (    2044 calls)

     Called by *egterg:
     cdiaghg      :   1659.84s CPU   2581.59s WALL (   11062 calls)
     h_psi        :   7973.25s CPU  11744.57s WALL (   11356 calls)
     s_psi        :   2352.70s CPU   3456.84s WALL (   11356 calls)
     g_psi        :     10.10s CPU     14.75s WALL (    9284 calls)

     Called by h_psi:
     h_psi:calbec :   2948.82s CPU   4250.29s WALL (   11356 calls)
     vloc_psi     :   2551.67s CPU   3830.53s WALL (   11356 calls)
     add_vuspsi   :   2461.75s CPU   3647.43s WALL (   11356 calls)

     General routines
     calbec       :   4397.44s CPU   6362.42s WALL (   14366 calls)
     fft          :     38.70s CPU     55.37s WALL (    2231 calls)
     ffts         :      1.56s CPU      2.26s WALL (     294 calls)
     fftw         :   2785.08s CPU   4250.40s WALL ( 1357936 calls)
     interpolate  :      2.35s CPU      3.31s WALL (     149 calls)

     Parallel routines
     fft_scatt_xy :    141.86s CPU    189.99s WALL ( 1360461 calls)
     fft_scatt_yz :   2103.13s CPU   3371.41s WALL ( 1360461 calls)

     PWSCF        :      6h48m CPU      9h59m WALL


   This run was terminated on:  12:46: 0   2Jul2026            

=------------------------------------------------------------------------------=
   JOB DONE.
=------------------------------------------------------------------------------=
