
     Program PWSCF v.6.7MaX starts on  2Jul2026 at 12:46: 1 

     This program is part of the open-source Quantum ESPRESSO suite
     for quantum simulation of materials; please cite
         "P. Giannozzi et al., J. Phys.:Condens. Matter 21 395502 (2009);
         "P. Giannozzi et al., J. Phys.:Condens. Matter 29 465901 (2017);
          URL http://www.quantum-espresso.org", 
     in publications or presentations arising from this work. More details at
     http://www.quantum-espresso.org/quote

     Parallel version (MPI), running on     8 processors

     MPI processes distributed on     1 nodes
     K-points division:     npool     =       2
     R & G space division:  proc/nbgrp/npool/nimage =       4
     Waiting for input...
     Reading input from standard input
Warning: card &CELL ignored
Warning: card / ignored

     Current dimensions of program PWSCF are:
     Max number of different atomic species (ntypx) = 10
     Max number of k-points (npk) =  40000
     Max angular momentum in pseudopotentials (lmaxx) =  3
     file Ca.pbe-spn-kjpaw_psl.1.0.0.UPF: wavefunction(s)  3S renormalized
     file O.pbe-n-kjpaw_psl.0.1.UPF: wavefunction(s)  2P renormalized

     Subspace diagonalization in iterative solution of the eigenvalue problem:
     one sub-group per band group will be used
     scalapack distributed-memory algorithm (size of sub-group:  2*  2 procs)


     Parallelization info
     --------------------
     sticks:   dense  smooth     PW     G-vecs:    dense   smooth      PW
     Min         917     460    131                58981    20856    3155
     Max         919     461    132                58983    20859    3156
     Sum        3671    1843    527               235927    83431   12623



     bravais-lattice index     =            0
     lattice parameter (alat)  =      10.5541  a.u.
     unit-cell volume          =    1745.9730 (a.u.)^3
     number of atoms/cell      =           20
     number of atomic types    =            3
     number of electrons       =       160.00
     number of Kohn-Sham states=           80
     kinetic-energy cutoff     =      50.0000  Ry
     charge density cutoff     =     400.0000  Ry
     scf convergence threshold =      1.0E-10
     mixing beta               =       0.3000
     number of iterations used =            8  plain     mixing
     Exchange-correlation= SLA  PW   PBX  PBC
                           (   1   4   3   4   0   0   0)

     celldm(1)=  10.554131  celldm(2)=   0.000000  celldm(3)=   0.000000
     celldm(4)=   0.000000  celldm(5)=   0.000000  celldm(6)=   0.000000

     crystal axes: (cart. coord. in units of alat)
               a(1) = (   1.000000  -0.000000   0.000000 )  
               a(2) = (   0.000000   1.034573   0.000000 )  
               a(3) = (   0.000000   0.000000   1.435519 )  

     reciprocal axes: (cart. coord. in units 2 pi/alat)
               b(1) = (  1.000000  0.000000  0.000000 )  
               b(2) = (  0.000000  0.966582 -0.000000 )  
               b(3) = ( -0.000000  0.000000  0.696612 )  


     PseudoPot. # 1 for Ca read from file:
     /data/pseudopotentials/Ca.pbe-spn-kjpaw_psl.1.0.0.UPF
     MD5 check sum: 1e11ab70c77b02a7d7d676f41d47b751
     Pseudo is Projector augmented-wave + core cor, Zval = 10.0
     Generated using &quot;atomic&quot; code by A. Dal Corso  v.6.4.1
     Shape of augmentation charge: PSQ
     Using radial grid of 1169 points,  6 beta functions with: 
                l(1) =   0
                l(2) =   0
                l(3) =   1
                l(4) =   1
                l(5) =   2
                l(6) =   2
     Q(r) pseudized with 0 coefficients 


     PseudoPot. # 2 for Zr read from file:
     /data/pseudopotentials/zr_pbe_v1.uspp.F.UPF
     MD5 check sum: 5db81b1e868ab7776c4564c113de050b
     Pseudo is Ultrasoft + core correction, Zval = 12.0
     Generated by new atomic code, or converted to UPF format
     Using radial grid of  887 points,  6 beta functions with: 
                l(1) =   0
                l(2) =   0
                l(3) =   1
                l(4) =   1
                l(5) =   2
                l(6) =   2
     Q(r) pseudized with  6 coefficients,  rinner =    1.200   1.200   1.200
                                                       1.200   1.200

     PseudoPot. # 3 for O  read from file:
     /data/pseudopotentials/O.pbe-n-kjpaw_psl.0.1.UPF
     MD5 check sum: 833c495a5d0f9b75bf046115549bffff
     Pseudo is Projector augmented-wave + core cor, Zval =  6.0
     Generated using &quot;atomic&quot; code by A. Dal Corso  v.6.3
     Shape of augmentation charge: BESSEL
     Using radial grid of 1095 points,  4 beta functions with: 
                l(1) =   0
                l(2) =   0
                l(3) =   1
                l(4) =   1
     Q(r) pseudized with 0 coefficients 


     atomic species   valence    mass     pseudopotential
        Ca            10.00    40.07800     Ca( 1.00)
        Zr            12.00    91.22400     Zr( 1.00)
        O              6.00    15.99900     O ( 1.00)

     No symmetry found



   Cartesian axes

     site n.     atom                  positions (alat units)
         1           Ca  tau(   1) = (   0.0135436   0.9808187   0.3588797  )
         2           Ca  tau(   2) = (   0.5135436   0.5710410   1.0766390  )
         3           Ca  tau(   3) = (   0.4864564   0.4635321   0.3588797  )
         4           Ca  tau(   4) = (   0.9864564   0.0537545   1.0766390  )
         5           Zr  tau(   5) = (   0.0000000   0.5172866   0.0000000  )
         6           Zr  tau(   6) = (   0.5000000   0.0000000   0.0000000  )
         7           Zr  tau(   7) = (   0.5000000   0.0000000   0.7177594  )
         8           Zr  tau(   8) = (   0.0000000   0.5172866   0.7177594  )
         9           O   tau(   9) = (   0.3023748   0.7245197   0.6365313  )
        10           O   tau(  10) = (   0.8023748   0.8273400   0.7989875  )
        11           O   tau(  11) = (   0.1976252   0.2072332   0.0812281  )
        12           O   tau(  12) = (   0.6976252   0.3100534   1.3542906  )
        13           O   tau(  13) = (   0.6976252   0.3100534   0.7989875  )
        14           O   tau(  14) = (   0.1976252   0.2072332   0.6365313  )
        15           O   tau(  15) = (   0.8023748   0.8273400   1.3542906  )
        16           O   tau(  16) = (   0.3023748   0.7245197   0.0812281  )
        17           O   tau(  17) = (   0.6068462   0.0429957   0.3588797  )
        18           O   tau(  18) = (   0.1068462   0.4742908   1.0766390  )
        19           O   tau(  19) = (   0.8931538   0.5602823   0.3588797  )
        20           O   tau(  20) = (   0.3931538   0.9915774   1.0766390  )

     number of k points=   112

     Number of k-points >= 100: set verbosity='high' to print them.

     Dense  grid:   235927 G-vectors     FFT dimensions: (  72,  72, 100)

     Smooth grid:    83431 G-vectors     FFT dimensions: (  48,  50,  72)

     Estimated max dynamical RAM per process >     331.91 MB

     Estimated total dynamical RAM >       2.59 GB

     Check: negative core charge=   -0.000003

     Initial potential from superposition of free atoms

     starting charge  159.97197, renormalised to  160.00000

     negative rho (up, down):  2.493E-01 0.000E+00
     Starting wfcs are  132 randomized atomic wfcs
     Checking if some PAW data can be deallocated... 

     total cpu time spent up to now is      217.4 secs

     Self-consistent Calculation

     iteration #  1     ecut=    50.00 Ry     beta= 0.30
     Davidson diagonalization with overlap
     ethr =  1.00E-02,  avg # of iterations =  1.7

     negative rho (up, down):  2.543E-01 0.000E+00

     total cpu time spent up to now is      568.7 secs

     total energy              =   -1432.32183802 Ry
     estimated scf accuracy    <       6.59966898 Ry

     iteration #  2     ecut=    50.00 Ry     beta= 0.30
     Davidson diagonalization with overlap
     ethr =  4.12E-03,  avg # of iterations =  2.1

     negative rho (up, down):  2.604E-01 0.000E+00

     total cpu time spent up to now is     1020.6 secs

     total energy              =   -1433.51551682 Ry
     estimated scf accuracy    <       0.33102421 Ry

     iteration #  3     ecut=    50.00 Ry     beta= 0.30
     Davidson diagonalization with overlap
     ethr =  2.07E-04,  avg # of iterations =  6.0

     negative rho (up, down):  2.620E-01 0.000E+00

     total cpu time spent up to now is     1811.4 secs

     total energy              =   -1433.73101998 Ry
     estimated scf accuracy    <       0.36388148 Ry

     iteration #  4     ecut=    50.00 Ry     beta= 0.30
     Davidson diagonalization with overlap
     ethr =  2.07E-04,  avg # of iterations =  4.2

     negative rho (up, down):  2.673E-01 0.000E+00

     total cpu time spent up to now is     2333.1 secs

     total energy              =   -1433.82918202 Ry
     estimated scf accuracy    <       0.04698574 Ry

     iteration #  5     ecut=    50.00 Ry     beta= 0.30
     Davidson diagonalization with overlap
     ethr =  2.94E-05,  avg # of iterations =  6.0

     negative rho (up, down):  2.680E-01 0.000E+00

     total cpu time spent up to now is     3069.9 secs

     total energy              =   -1433.80156429 Ry
     estimated scf accuracy    <       0.14568306 Ry

     iteration #  6     ecut=    50.00 Ry     beta= 0.30
     Davidson diagonalization with overlap
     ethr =  2.94E-05,  avg # of iterations =  4.1

     negative rho (up, down):  2.685E-01 0.000E+00

     total cpu time spent up to now is     3660.8 secs

     total energy              =   -1433.82036882 Ry
     estimated scf accuracy    <       0.00475312 Ry

     iteration #  7     ecut=    50.00 Ry     beta= 0.30
     Davidson diagonalization with overlap
     ethr =  2.97E-06,  avg # of iterations =  5.4

     negative rho (up, down):  2.687E-01 0.000E+00

     total cpu time spent up to now is     4332.5 secs

     total energy              =   -1433.82289232 Ry
     estimated scf accuracy    <       0.00016270 Ry

     iteration #  8     ecut=    50.00 Ry     beta= 0.30
     Davidson diagonalization with overlap
     ethr =  1.02E-07,  avg # of iterations =  8.0

     negative rho (up, down):  2.686E-01 0.000E+00

     total cpu time spent up to now is     5203.8 secs

     total energy              =   -1433.82291733 Ry
     estimated scf accuracy    <       0.00065173 Ry

     iteration #  9     ecut=    50.00 Ry     beta= 0.30
     Davidson diagonalization with overlap
     ethr =  1.02E-07,  avg # of iterations =  2.4

     negative rho (up, down):  2.685E-01 0.000E+00

     total cpu time spent up to now is     5657.5 secs

     total energy              =   -1433.82284177 Ry
     estimated scf accuracy    <       0.00023181 Ry

     iteration # 10     ecut=    50.00 Ry     beta= 0.30
     Davidson diagonalization with overlap
     ethr =  1.02E-07,  avg # of iterations =  5.1

     negative rho (up, down):  2.685E-01 0.000E+00

     total cpu time spent up to now is     6289.8 secs

     total energy              =   -1433.82291543 Ry
     estimated scf accuracy    <       0.00000482 Ry

     iteration # 11     ecut=    50.00 Ry     beta= 0.30
     Davidson diagonalization with overlap
     ethr =  3.01E-09,  avg # of iterations =  6.1

     negative rho (up, down):  2.685E-01 0.000E+00

     total cpu time spent up to now is     7106.8 secs

     total energy              =   -1433.82291754 Ry
     estimated scf accuracy    <       0.00000888 Ry

     iteration # 12     ecut=    50.00 Ry     beta= 0.30
     Davidson diagonalization with overlap
     ethr =  3.01E-09,  avg # of iterations =  4.2

     negative rho (up, down):  2.685E-01 0.000E+00

     total cpu time spent up to now is     7711.0 secs

     total energy              =   -1433.82291949 Ry
     estimated scf accuracy    <       0.00000007 Ry

     iteration # 13     ecut=    50.00 Ry     beta= 0.30
     Davidson diagonalization with overlap
     ethr =  4.14E-11,  avg # of iterations =  8.0

     negative rho (up, down):  2.685E-01 0.000E+00

     total cpu time spent up to now is     8584.2 secs

     total energy              =   -1433.82291960 Ry
     estimated scf accuracy    <       0.00000001 Ry

     iteration # 14     ecut=    50.00 Ry     beta= 0.30
     Davidson diagonalization with overlap
     ethr =  8.94E-12,  avg # of iterations =  4.9

     negative rho (up, down):  2.685E-01 0.000E+00

     total cpu time spent up to now is     9216.4 secs

     total energy              =   -1433.82291961 Ry
     estimated scf accuracy    <          3.5E-09 Ry

     iteration # 15     ecut=    50.00 Ry     beta= 0.30
     Davidson diagonalization with overlap
     ethr =  2.18E-12,  avg # of iterations =  5.0

     negative rho (up, down):  2.685E-01 0.000E+00

     total cpu time spent up to now is     9832.9 secs

     total energy              =   -1433.82291961 Ry
     estimated scf accuracy    <          6.4E-09 Ry

     iteration # 16     ecut=    50.00 Ry     beta= 0.30
     Davidson diagonalization with overlap
     ethr =  2.18E-12,  avg # of iterations =  1.1

     negative rho (up, down):  2.685E-01 0.000E+00

     total cpu time spent up to now is    10157.9 secs

     total energy              =   -1433.82291961 Ry
     estimated scf accuracy    <          4.4E-09 Ry

     iteration # 17     ecut=    50.00 Ry     beta= 0.30
     Davidson diagonalization with overlap
     ethr =  2.18E-12,  avg # of iterations =  4.3

     negative rho (up, down):  2.685E-01 0.000E+00

     total cpu time spent up to now is    10685.1 secs

     total energy              =   -1433.82291961 Ry
     estimated scf accuracy    <          1.7E-10 Ry

     iteration # 18     ecut=    50.00 Ry     beta= 0.30
     Davidson diagonalization with overlap
     ethr =  1.05E-13,  avg # of iterations =  5.2

     negative rho (up, down):  2.685E-01 0.000E+00

     total cpu time spent up to now is    11321.8 secs

     End of self-consistent calculation

     Number of k-points >= 100: set verbosity='high' to print the bands.

     highest occupied level (ev):     8.6452

!    total energy              =   -1433.82291961 Ry
     estimated scf accuracy    <          5.6E-11 Ry

     The total energy is the sum of the following terms:
     one-electron contribution =    -240.64404218 Ry
     hartree contribution      =     210.10639747 Ry
     xc contribution           =    -210.33553895 Ry
     ewald contribution        =    -838.84290037 Ry
     one-center paw contrib.   =    -354.10683559 Ry

     convergence has been achieved in  18 iterations

     negative rho (up, down):  2.685E-01 0.000E+00

     Forces acting on atoms (cartesian axes, Ry/au):

     atom    1 type  1   force =    -0.00049105    0.00180092   -0.00000013
     atom    2 type  1   force =    -0.00049093   -0.00180110   -0.00000002
     atom    3 type  1   force =     0.00049117    0.00180115    0.00000006
     atom    4 type  1   force =     0.00049103   -0.00180131    0.00000003
     atom    5 type  2   force =    -0.00000012    0.00000012    0.00000020
     atom    6 type  2   force =     0.00000008   -0.00000002    0.00000008
     atom    7 type  2   force =     0.00000005    0.00000001   -0.00000008
     atom    8 type  2   force =    -0.00000010    0.00000007   -0.00000017
     atom    9 type  3   force =     0.00076492   -0.00124714   -0.00180964
     atom   10 type  3   force =     0.00076497    0.00124715    0.00180965
     atom   11 type  3   force =    -0.00076497   -0.00124716    0.00180967
     atom   12 type  3   force =    -0.00076497    0.00124714   -0.00180963
     atom   13 type  3   force =    -0.00076495    0.00124717    0.00180964
     atom   14 type  3   force =    -0.00076497   -0.00124713   -0.00180964
     atom   15 type  3   force =     0.00076496    0.00124718   -0.00180967
     atom   16 type  3   force =     0.00076495   -0.00124711    0.00180964
     atom   17 type  3   force =     0.00222750   -0.00022570    0.00000000
     atom   18 type  3   force =     0.00222748    0.00022572   -0.00000003
     atom   19 type  3   force =    -0.00222753   -0.00022568    0.00000003
     atom   20 type  3   force =    -0.00222749    0.00022572    0.00000001

     Total force =     0.008793     Total SCF correction =     0.000023


     Computing stress (Cartesian axis) and pressure


     negative rho (up, down):  2.685E-01 0.000E+00
          total   stress  (Ry/bohr**3)                   (kbar)     P=       23.42
   0.00015285   0.00000000   0.00000000           22.48        0.00        0.00
   0.00000000   0.00015729   0.00000000            0.00       23.14        0.00
   0.00000000   0.00000000   0.00016757            0.00        0.00       24.65


     Writing output data file ./out/CaO3Zr.save/

     init_run     :    177.52s CPU    216.11s WALL (       1 calls)
     electrons    :   8881.56s CPU  11104.45s WALL (       1 calls)
     forces       :     93.17s CPU    114.46s WALL (       1 calls)
     stress       :    116.89s CPU    140.59s WALL (       1 calls)

     Called by init_run:
     wfcinit      :    169.65s CPU    206.51s WALL (       1 calls)
     potinit      :      3.27s CPU      3.52s WALL (       1 calls)
     hinit0       :      3.56s CPU      4.86s WALL (       1 calls)

     Called by electrons:
     c_bands      :   8290.79s CPU  10363.39s WALL (      18 calls)
     sum_band     :    556.93s CPU    697.28s WALL (      18 calls)
     v_of_rho     :      3.90s CPU      4.70s WALL (      19 calls)
     newd         :     14.25s CPU     19.70s WALL (      19 calls)
     PAW_pot      :     16.04s CPU     19.57s WALL (      19 calls)
     mix_rho      :      0.83s CPU      1.00s WALL (      18 calls)

     Called by c_bands:
     init_us_2    :     13.47s CPU     17.61s WALL (    2184 calls)
     cegterg      :   8075.29s CPU  10095.09s WALL (    1008 calls)

     Called by *egterg:
     cdiaghg      :    351.53s CPU    459.21s WALL (    5724 calls)
     h_psi        :   3381.10s CPU   4259.38s WALL (    5780 calls)
     s_psi        :   1059.25s CPU   1326.78s WALL (    5780 calls)
     g_psi        :      4.99s CPU      6.31s WALL (    4716 calls)

     Called by h_psi:
     h_psi:calbec :   1339.96s CPU   1647.42s WALL (    5780 calls)
     vloc_psi     :    917.86s CPU   1186.87s WALL (    5780 calls)
     add_vuspsi   :   1118.07s CPU   1418.57s WALL (    5780 calls)

     General routines
     calbec       :   1845.74s CPU   2268.92s WALL (    7068 calls)
     fft          :      6.18s CPU      7.14s WALL (     270 calls)
     ffts         :      0.21s CPU      0.27s WALL (      37 calls)
     fftw         :    965.55s CPU   1254.04s WALL (  630946 calls)
     interpolate  :      0.36s CPU      0.42s WALL (      19 calls)

     Parallel routines
     fft_scatt_xy :     67.91s CPU     86.80s WALL (  631253 calls)
     fft_scatt_yz :    646.04s CPU    853.90s WALL (  631253 calls)

     PWSCF        :      2h34m CPU      3h12m WALL


   This run was terminated on:  15:59: 1   2Jul2026            

=------------------------------------------------------------------------------=
   JOB DONE.
=------------------------------------------------------------------------------=
