
     Program PWSCF v.6.7MaX starts on  3Jul2026 at 18:24:21 

     This program is part of the open-source Quantum ESPRESSO suite
     for quantum simulation of materials; please cite
         "P. Giannozzi et al., J. Phys.:Condens. Matter 21 395502 (2009);
         "P. Giannozzi et al., J. Phys.:Condens. Matter 29 465901 (2017);
          URL http://www.quantum-espresso.org", 
     in publications or presentations arising from this work. More details at
     http://www.quantum-espresso.org/quote

     Parallel version (MPI), running on     8 processors

     MPI processes distributed on     1 nodes
     K-points division:     npool     =       2
     R & G space division:  proc/nbgrp/npool/nimage =       4
     Waiting for input...
     Reading input from standard input

     Current dimensions of program PWSCF are:
     Max number of different atomic species (ntypx) = 10
     Max number of k-points (npk) =  40000
     Max angular momentum in pseudopotentials (lmaxx) =  3
     file O.pbe-n-kjpaw_psl.0.1.UPF: wavefunction(s)  2P renormalized

     Subspace diagonalization in iterative solution of the eigenvalue problem:
     one sub-group per band group will be used
     scalapack distributed-memory algorithm (size of sub-group:  2*  2 procs)

     Message from routine setup:
     using ibrav=0 with symmetry is DISCOURAGED, use correct ibrav instead

     Parallelization info
     --------------------
     sticks:   dense  smooth     PW     G-vecs:    dense   smooth      PW
     Min         582     289     86                29980    10562    1748
     Max         583     290     88                29981    10563    1749
     Sum        2329    1159    347               119921    42249    6993



     bravais-lattice index     =            0
     lattice parameter (alat)  =       8.9079  a.u.
     unit-cell volume          =     887.4134 (a.u.)^3
     number of atoms/cell      =           12
     number of atomic types    =            3
     number of electrons       =        80.00
     number of Kohn-Sham states=           48
     kinetic-energy cutoff     =      50.0000  Ry
     charge density cutoff     =     400.0000  Ry
     scf convergence threshold =      1.0E-08
     mixing beta               =       0.3000
     number of iterations used =            8  plain     mixing
     energy convergence thresh.=      1.0E-05
     force convergence thresh. =      1.0E-04
     press convergence thresh. =      5.0E-01
     Exchange-correlation= SLA  PW   PBX  PBC
                           (   1   4   3   4   0   0   0)
     nstep                     =           50


     celldm(1)=   8.907925  celldm(2)=   0.000000  celldm(3)=   0.000000
     celldm(4)=   0.000000  celldm(5)=   0.000000  celldm(6)=   0.000000

     crystal axes: (cart. coord. in units of alat)
               a(1) = (   1.000000   0.000400  -0.000000 )  
               a(2) = (  -0.397225   0.917721   0.000000 )  
               a(3) = (   0.000000   0.000000   1.367761 )  

     reciprocal axes: (cart. coord. in units 2 pi/alat)
               b(1) = (  0.999827  0.432764 -0.000000 )  
               b(2) = ( -0.000436  1.089467  0.000000 )  
               b(3) = (  0.000000  0.000000  0.731122 )  


     PseudoPot. # 1 for Mg read from file:
     /data/pseudopotentials/mg_pbe_v1.4.uspp.F.UPF
     MD5 check sum: 8ffbd8f729fef71095aac5bd8316fb1f
     Pseudo is Ultrasoft, Zval = 10.0
     Generated by new atomic code, or converted to UPF format
     Using radial grid of  821 points,  7 beta functions with: 
                l(1) =   0
                l(2) =   0
                l(3) =   0
                l(4) =   1
                l(5) =   1
                l(6) =   2
                l(7) =   2
     Q(r) pseudized with  8 coefficients,  rinner =    1.200   1.200   1.200
                                                       1.200   1.200

     PseudoPot. # 2 for S  read from file:
     /data/pseudopotentials/s_pbe_v1.4.uspp.F.UPF
     MD5 check sum: 88d86576ff6df21479756cfb9bdac1df
     Pseudo is Ultrasoft + core correction, Zval =  6.0
     Generated by new atomic code, or converted to UPF format
     Using radial grid of  907 points,  6 beta functions with: 
                l(1) =   0
                l(2) =   0
                l(3) =   1
                l(4) =   1
                l(5) =   2
                l(6) =   2
     Q(r) pseudized with  8 coefficients,  rinner =    1.300   1.300   1.300
                                                       1.300   1.300

     PseudoPot. # 3 for O  read from file:
     /data/pseudopotentials/O.pbe-n-kjpaw_psl.0.1.UPF
     MD5 check sum: 833c495a5d0f9b75bf046115549bffff
     Pseudo is Projector augmented-wave + core cor, Zval =  6.0
     Generated using &quot;atomic&quot; code by A. Dal Corso  v.6.3
     Shape of augmentation charge: BESSEL
     Using radial grid of 1095 points,  4 beta functions with: 
                l(1) =   0
                l(2) =   0
                l(3) =   1
                l(4) =   1
     Q(r) pseudized with 0 coefficients 


     atomic species   valence    mass     pseudopotential
        Mg            10.00    24.30500     Mg( 1.00)
        S              6.00    32.06000     S ( 1.00)
        O              6.00    15.99900     O ( 1.00)

      4 Sym. Ops., with inversion, found ( 2 have fractional translation)



   Cartesian axes

     site n.     atom                  positions (alat units)
         1           Mg  tau(   1) = (   0.0000000   0.0000000   0.0000000  )
         2           Mg  tau(   2) = (   0.0000000   0.0000000   0.6838805  )
         3           S   tau(   3) = (   0.0931540   0.5957724   1.0258208  )
         4           S   tau(   4) = (   0.5096209   0.3223490   0.3419403  )
         5           O   tau(   5) = (   0.1071000   0.2789756   1.0258208  )
         6           O   tau(   6) = (   0.4956749   0.6391458   0.3419403  )
         7           O   tau(   7) = (   0.2133953   0.2091894   0.3419403  )
         8           O   tau(   8) = (   0.3893795   0.7089320   1.0258208  )
         9           O   tau(   9) = (  -0.0489574   0.6890728   1.2822895  )
        10           O   tau(  10) = (   0.6517322   0.2290486   0.5984104  )
        11           O   tau(  11) = (   0.6517322   0.2290486   0.0854702  )
        12           O   tau(  12) = (  -0.0489574   0.6890728   0.7693521  )

     number of k points=    30  Gaussian smearing, width (Ry)=  0.0050
                       cart. coord. in units 2pi/alat
        k(    1) = (   0.0000000   0.0000000   0.0000000), wk =   0.0312500
        k(    2) = (   0.0000000   0.0000000   0.1827805), wk =   0.0625000
        k(    3) = (   0.0000000   0.0000000  -0.3655609), wk =   0.0312500
        k(    4) = (  -0.0001090   0.2723667   0.0000000), wk =   0.0625000
        k(    5) = (  -0.0001090   0.2723667   0.1827805), wk =   0.1250000
        k(    6) = (  -0.0001090   0.2723667  -0.3655609), wk =   0.0625000
        k(    7) = (   0.0002179  -0.5447334   0.0000000), wk =   0.0312500
        k(    8) = (   0.0002179  -0.5447334   0.1827805), wk =   0.0625000
        k(    9) = (   0.0002179  -0.5447334  -0.3655609), wk =   0.0312500
        k(   10) = (   0.2499567   0.1081909   0.0000000), wk =   0.0625000
        k(   11) = (   0.2499567   0.1081909   0.1827805), wk =   0.1250000
        k(   12) = (   0.2499567   0.1081909  -0.3655609), wk =   0.0625000
        k(   13) = (   0.2498478   0.3805576   0.0000000), wk =   0.0625000
        k(   14) = (   0.2498478   0.3805576   0.1827805), wk =   0.1250000
        k(   15) = (   0.2498478   0.3805576  -0.3655609), wk =   0.0625000
        k(   16) = (   0.2501747  -0.4365425   0.0000000), wk =   0.0625000
        k(   17) = (   0.2501747  -0.4365425   0.1827805), wk =   0.1250000
        k(   18) = (   0.2501747  -0.4365425  -0.3655609), wk =   0.0625000
        k(   19) = (   0.2500657  -0.1641758   0.0000000), wk =   0.0625000
        k(   20) = (   0.2500657  -0.1641758   0.1827805), wk =   0.1250000
        k(   21) = (   0.2500657  -0.1641758  -0.3655609), wk =   0.0625000
        k(   22) = (  -0.4999135  -0.2163818   0.0000000), wk =   0.0312500
        k(   23) = (  -0.4999135  -0.2163818   0.1827805), wk =   0.0625000
        k(   24) = (  -0.4999135  -0.2163818  -0.3655609), wk =   0.0312500
        k(   25) = (  -0.5000224   0.0559849   0.0000000), wk =   0.0625000
        k(   26) = (  -0.5000224   0.0559849   0.1827805), wk =   0.1250000
        k(   27) = (  -0.5000224   0.0559849  -0.3655609), wk =   0.0625000
        k(   28) = (  -0.4996955  -0.7611151   0.0000000), wk =   0.0312500
        k(   29) = (  -0.4996955  -0.7611151   0.1827805), wk =   0.0625000
        k(   30) = (  -0.4996955  -0.7611151  -0.3655609), wk =   0.0312500

     Dense  grid:   119921 G-vectors     FFT dimensions: (  60,  60,  80)

     Smooth grid:    42249 G-vectors     FFT dimensions: (  45,  45,  60)

     Estimated max dynamical RAM per process >     102.42 MB

     Estimated total dynamical RAM >     819.38 MB

     Check: negative core charge=   -0.000003

     Initial potential from superposition of free atoms

     starting charge   79.39946, renormalised to   80.00000
     Starting wfcs are   50 randomized atomic wfcs
     Checking if some PAW data can be deallocated... 

     total cpu time spent up to now is       16.1 secs

     Self-consistent Calculation

     iteration #  1     ecut=    50.00 Ry     beta= 0.30
     Davidson diagonalization with overlap
     ethr =  1.00E-02,  avg # of iterations =  4.1

     total cpu time spent up to now is       53.7 secs

     total energy              =    -632.30676307 Ry
     estimated scf accuracy    <       2.57929600 Ry

     iteration #  2     ecut=    50.00 Ry     beta= 0.30
     Davidson diagonalization with overlap
     ethr =  3.22E-03,  avg # of iterations =  2.0

     total cpu time spent up to now is       82.8 secs

     total energy              =    -632.67021001 Ry
     estimated scf accuracy    <       0.16756945 Ry

     iteration #  3     ecut=    50.00 Ry     beta= 0.30
     Davidson diagonalization with overlap
     ethr =  2.09E-04,  avg # of iterations =  6.7

     total cpu time spent up to now is      124.9 secs

     total energy              =    -632.70064428 Ry
     estimated scf accuracy    <       0.04491299 Ry

     iteration #  4     ecut=    50.00 Ry     beta= 0.30
     Davidson diagonalization with overlap
     ethr =  5.61E-05,  avg # of iterations =  2.6

     total cpu time spent up to now is      161.9 secs

     total energy              =    -632.70876709 Ry
     estimated scf accuracy    <       0.02459438 Ry

     iteration #  5     ecut=    50.00 Ry     beta= 0.30
     Davidson diagonalization with overlap
     ethr =  3.07E-05,  avg # of iterations =  1.3

     total cpu time spent up to now is      185.6 secs

     total energy              =    -632.70405118 Ry
     estimated scf accuracy    <       0.00918231 Ry

     iteration #  6     ecut=    50.00 Ry     beta= 0.30
     Davidson diagonalization with overlap
     ethr =  1.15E-05,  avg # of iterations =  3.8

     total cpu time spent up to now is      224.5 secs

     total energy              =    -632.70722789 Ry
     estimated scf accuracy    <       0.00127524 Ry

     iteration #  7     ecut=    50.00 Ry     beta= 0.30
     Davidson diagonalization with overlap
     ethr =  1.59E-06,  avg # of iterations =  4.6

     total cpu time spent up to now is      253.1 secs

     total energy              =    -632.70714036 Ry
     estimated scf accuracy    <       0.00034570 Ry

     iteration #  8     ecut=    50.00 Ry     beta= 0.30
     Davidson diagonalization with overlap
     ethr =  4.32E-07,  avg # of iterations =  2.0

     total cpu time spent up to now is      279.4 secs

     total energy              =    -632.70720693 Ry
     estimated scf accuracy    <       0.00000443 Ry

     iteration #  9     ecut=    50.00 Ry     beta= 0.30
     Davidson diagonalization with overlap
     ethr =  5.54E-09,  avg # of iterations =  4.9

     total cpu time spent up to now is      319.4 secs

     total energy              =    -632.70721190 Ry
     estimated scf accuracy    <       0.00000285 Ry

     iteration # 10     ecut=    50.00 Ry     beta= 0.30
     Davidson diagonalization with overlap
     ethr =  3.56E-09,  avg # of iterations =  1.0

     total cpu time spent up to now is      344.4 secs

     total energy              =    -632.70721167 Ry
     estimated scf accuracy    <       0.00000109 Ry

     iteration # 11     ecut=    50.00 Ry     beta= 0.30
     Davidson diagonalization with overlap
     ethr =  1.36E-09,  avg # of iterations =  2.0

     total cpu time spent up to now is      373.3 secs

     total energy              =    -632.70721195 Ry
     estimated scf accuracy    <       0.00000002 Ry

     iteration # 12     ecut=    50.00 Ry     beta= 0.30
     Davidson diagonalization with overlap
     ethr =  1.89E-11,  avg # of iterations =  2.2

     total cpu time spent up to now is      406.0 secs

     total energy              =    -632.70721198 Ry
     estimated scf accuracy    <       0.00000001 Ry

     iteration # 13     ecut=    50.00 Ry     beta= 0.30
     Davidson diagonalization with overlap
     ethr =  1.40E-11,  avg # of iterations =  2.0

     total cpu time spent up to now is      435.1 secs

     End of self-consistent calculation

          k = 0.0000 0.0000 0.0000 (  5241 PWs)   bands (ev):

   -68.2653 -68.2644 -35.0637 -35.0467 -35.0442 -35.0434 -35.0215 -35.0200
   -18.6397 -18.4073 -14.4421 -14.1318 -14.0797 -14.0733 -14.0676 -14.0654
    -5.2188  -4.3866  -1.9232  -1.8333  -1.6091  -1.5492  -1.5137  -1.4286
     0.6076   1.1245   1.2216   1.5666   1.5923   1.9452   2.1963   2.6281
     2.7901   2.9687   3.5544   3.6296   3.8094   4.3233   4.5556   4.6265
    10.6172  12.6151  12.7377  14.0134  14.1547  14.2161  14.2274  14.3318

          k = 0.0000 0.0000 0.1828 (  5279 PWs)   bands (ev):

   -68.2652 -68.2645 -35.0608 -35.0470 -35.0462 -35.0439 -35.0213 -35.0202
   -18.6076 -18.4434 -14.3885 -14.1325 -14.1242 -14.0874 -14.0642 -14.0612
    -5.1077  -4.5223  -1.8795  -1.8602  -1.7344  -1.6171  -1.4142  -1.3875
     0.8422   1.2597   1.2862   1.5255   1.5374   2.0917   2.2513   2.3309
     2.6898   2.8200   3.5575   3.6926   3.7395   4.1697   4.6098   4.6375
    10.9767  12.4582  12.8952  13.8475  14.0867  14.3209  14.3708  14.4351

          k = 0.0000 0.0000-0.3656 (  5288 PWs)   bands (ev):

   -68.2648 -68.2648 -35.0539 -35.0539 -35.0451 -35.0451 -35.0208 -35.0208
   -18.5277 -18.5273 -14.2605 -14.2601 -14.1060 -14.1057 -14.0621 -14.0618
    -4.8269  -4.8268  -1.8464  -1.8464  -1.7602  -1.7599  -1.3571  -1.3571
     1.2858   1.2859   1.4179   1.4181   1.7013   1.7013   2.4505   2.4506
     2.4544   2.4546   3.6165   3.6166   3.9015   3.9015   4.6442   4.6443
    11.7577  11.7579  13.5954  13.5956  13.9396  13.9397  14.4132  14.4135

          k =-0.0001 0.2724 0.0000 (  5287 PWs)   bands (ev):

   -68.2653 -68.2644 -35.0637 -35.0468 -35.0442 -35.0435 -35.0216 -35.0200
   -18.5777 -18.4075 -14.3861 -14.2675 -14.1530 -14.1253 -14.0833 -14.0511
    -4.7637  -4.1239  -2.0085  -1.9044  -1.7203  -1.6896  -1.5760  -1.1920
     0.7285   1.0984   1.1035   1.5936   1.8496   1.8744   2.0674   2.3316
     2.5581   2.7450   3.5379   3.7242   3.9583   4.2281   4.3198   4.3590
    11.5356  13.1267  13.1720  13.8254  14.0231  14.1036  14.2149  14.3121

          k =-0.0001 0.2724 0.1828 (  5289 PWs)   bands (ev):

   -68.2652 -68.2645 -35.0608 -35.0470 -35.0463 -35.0440 -35.0214 -35.0203
   -18.5536 -18.4333 -14.3648 -14.2680 -14.1689 -14.1275 -14.0810 -14.0556
    -4.6779  -4.2281  -1.9962  -1.9189  -1.7663  -1.7165  -1.4546  -1.2178
     0.8928   1.0914   1.2227   1.4897   1.6845   1.9721   2.0958   2.2156
     2.5851   2.6472   3.5946   3.6934   3.9352   4.1792   4.2957   4.3732
    11.8342  13.0101  13.3684  13.7940  14.0458  14.1377  14.2054  14.4617

          k =-0.0001 0.2724-0.3656 (  5294 PWs)   bands (ev):

   -68.2648 -68.2648 -35.0539 -35.0539 -35.0451 -35.0451 -35.0208 -35.0208
   -18.4945 -18.4941 -14.3107 -14.3106 -14.1530 -14.1530 -14.0691 -14.0688
    -4.4619  -4.4618  -1.9591  -1.9589  -1.7631  -1.7631  -1.3037  -1.3036
     1.1763   1.1764   1.3695   1.3696   1.5510   1.5510   2.3768   2.3770
     2.4460   2.4462   3.6624   3.6625   4.0039   4.0040   4.3444   4.3445
    12.4797  12.4799  13.8187  13.8187  14.0607  14.0608  14.2609  14.2611

          k = 0.0002-0.5447 0.0000 (  5272 PWs)   bands (ev):

   -68.2653 -68.2644 -35.0636 -35.0468 -35.0442 -35.0435 -35.0217 -35.0201
   -18.4918 -18.4295 -14.4061 -14.2539 -14.2534 -14.2076 -14.0978 -14.0507
    -4.0736  -3.9728  -2.2132  -2.0157  -1.8043  -1.7316  -1.3374  -1.3364
     0.9446   0.9650   1.2952   1.3654   1.5593   1.7517   2.1485   2.3030
     2.4281   2.5614   3.3947   3.8652   3.9615   4.1545   4.1717   4.2462
    12.6467  13.2389  13.5533  13.7719  14.0742  14.1024  14.1570  14.3682

          k = 0.0002-0.5447 0.1828 (  5298 PWs)   bands (ev):

   -68.2652 -68.2645 -35.0608 -35.0470 -35.0463 -35.0440 -35.0215 -35.0203
   -18.4824 -18.4383 -14.4124 -14.3210 -14.2176 -14.1666 -14.0942 -14.0590
    -4.0572  -3.9854  -2.1835  -2.0476  -1.7890  -1.7527  -1.3062  -1.2919
     0.8470   0.8931   1.3747   1.3809   1.5762   1.7828   2.1360   2.1813
     2.4973   2.5008   3.5104   3.8979   3.9073   4.1090   4.1625   4.2125
    12.9191  13.3052  13.7415  13.8496  13.9782  14.1125  14.2251  14.4461

          k = 0.0002-0.5447-0.3656 (  5296 PWs)   bands (ev):

   -68.2648 -68.2648 -35.0539 -35.0539 -35.0452 -35.0452 -35.0209 -35.0209
   -18.4602 -18.4598 -14.3898 -14.3898 -14.1673 -14.1672 -14.0792 -14.0788
    -4.0194  -4.0193  -2.1153  -2.1151  -1.7734  -1.7733  -1.2634  -1.2632
     0.8269   0.8269   1.3467   1.3468   1.6829   1.6831   2.2893   2.2895
     2.3620   2.3620   3.7376   3.7377   4.0001   4.0003   4.1663   4.1664
    13.3430  13.3431  13.8423  13.8424  14.0555  14.0557  14.4234  14.4236

          k = 0.2500 0.1082 0.0000 (  5287 PWs)   bands (ev):

   -68.2653 -68.2644 -35.0637 -35.0468 -35.0442 -35.0435 -35.0216 -35.0200
   -18.5777 -18.4075 -14.3861 -14.2675 -14.1530 -14.1253 -14.0833 -14.0511
    -4.7637  -4.1239  -2.0085  -1.9044  -1.7203  -1.6896  -1.5760  -1.1920
     0.7285   1.0984   1.1035   1.5936   1.8496   1.8744   2.0674   2.3316
     2.5581   2.7450   3.5379   3.7242   3.9583   4.2281   4.3198   4.3590
    11.5356  13.1267  13.1720  13.8254  14.0231  14.1036  14.2149  14.3121

          k = 0.2500 0.1082 0.1828 (  5289 PWs)   bands (ev):

   -68.2652 -68.2645 -35.0608 -35.0470 -35.0463 -35.0440 -35.0214 -35.0203
   -18.5536 -18.4333 -14.3648 -14.2680 -14.1689 -14.1275 -14.0810 -14.0556
    -4.6779  -4.2281  -1.9962  -1.9189  -1.7663  -1.7165  -1.4546  -1.2178
     0.8928   1.0914   1.2227   1.4897   1.6845   1.9721   2.0958   2.2156
     2.5851   2.6472   3.5946   3.6934   3.9352   4.1792   4.2957   4.3732
    11.8342  13.0101  13.3684  13.7940  14.0458  14.1377  14.2054  14.4617

          k = 0.2500 0.1082-0.3656 (  5294 PWs)   bands (ev):

   -68.2648 -68.2648 -35.0539 -35.0539 -35.0451 -35.0451 -35.0208 -35.0208
   -18.4945 -18.4941 -14.3107 -14.3106 -14.1530 -14.1530 -14.0691 -14.0688
    -4.4619  -4.4618  -1.9591  -1.9589  -1.7631  -1.7631  -1.3037  -1.3036
     1.1763   1.1764   1.3695   1.3696   1.5510   1.5510   2.3768   2.3770
     2.4460   2.4462   3.6624   3.6625   4.0039   4.0040   4.3444   4.3445
    12.4797  12.4799  13.8187  13.8187  14.0607  14.0608  14.2609  14.2611

          k = 0.2498 0.3806 0.0000 (  5315 PWs)   bands (ev):

   -68.2653 -68.2644 -35.0636 -35.0468 -35.0442 -35.0435 -35.0217 -35.0201
   -18.4986 -18.4227 -14.3921 -14.2762 -14.2309 -14.2057 -14.1214 -14.0443
    -4.1057  -3.8932  -2.2558  -2.0601  -1.9719  -1.5236  -1.3730  -1.3054
     0.5526   1.1213   1.4768   1.5291   1.7910   1.8096   1.8116   2.2364
     2.5089   2.5253   3.7158   3.7861   3.8713   4.0163   4.1324   4.1997
    12.7692  13.4478  13.5286  13.6802  13.9670  14.0532  14.5674  14.7992

          k = 0.2498 0.3806 0.1828 (  5315 PWs)   bands (ev):

   -68.2652 -68.2645 -35.0608 -35.0470 -35.0464 -35.0440 -35.0215 -35.0203
   -18.4873 -18.4336 -14.3851 -14.3217 -14.2277 -14.1838 -14.1078 -14.0458
    -4.0716  -3.9223  -2.2325  -2.1083  -1.8909  -1.5928  -1.3439  -1.2955
     0.7069   1.1371   1.2899   1.4873   1.5271   1.7313   2.1899   2.2343
     2.4560   2.5140   3.7268   3.8419   3.9287   3.9571   4.0837   4.1765
    12.9683  13.3511  13.7206  13.8585  14.0430  14.1927  14.3835  14.5500

          k = 0.2498 0.3806-0.3656 (  5312 PWs)   bands (ev):

   -68.2648 -68.2648 -35.0539 -35.0539 -35.0452 -35.0452 -35.0209 -35.0209
   -18.4604 -18.4600 -14.3649 -14.3649 -14.2062 -14.2062 -14.0656 -14.0654
    -3.9944  -3.9943  -2.1752  -2.1750  -1.7432  -1.7432  -1.2997  -1.2996
     1.0105   1.0105   1.2647   1.2649   1.5521   1.5523   2.3095   2.3097
     2.4577   2.4577   3.7927   3.7928   3.9807   3.9809   4.0772   4.0773
    13.2469  13.2471  13.9609  13.9610  14.2034  14.2036  14.4330  14.4333

          k = 0.2502-0.4365 0.0000 (  5324 PWs)   bands (ev):

   -68.2653 -68.2644 -35.0636 -35.0468 -35.0442 -35.0435 -35.0218 -35.0202
   -18.4852 -18.4150 -14.3819 -14.3472 -14.2172 -14.1504 -14.1303 -14.0832
    -4.2900  -3.9143  -2.2067  -2.1267  -1.7609  -1.5284  -1.4573  -1.0696
     0.5696   0.9523   1.3850   1.4429   1.4548   1.8719   2.0573   2.3184
     2.3691   2.7101   3.6601   3.9039   4.0448   4.1375   4.1456   4.4700
    12.6596  12.8659  13.2984  13.6352  13.8642  14.0805  14.2241  14.3530

          k = 0.2502-0.4365 0.1828 (  5297 PWs)   bands (ev):

   -68.2652 -68.2645 -35.0608 -35.0470 -35.0463 -35.0440 -35.0216 -35.0204
   -18.4747 -18.4251 -14.3671 -14.3368 -14.2307 -14.2147 -14.0891 -14.0741
    -4.2330  -3.9671  -2.1466  -2.0803  -1.7703  -1.5984  -1.4008  -1.1184
     0.6603   0.9539   1.1376   1.3984   1.5483   1.6384   2.1968   2.3595
     2.4811   2.6145   3.7605   3.9404   4.0387   4.1091   4.1752   4.4002
    12.8111  13.0093  13.3467  13.7330  13.8552  14.0715  14.1876  14.3310

          k = 0.2502-0.4365-0.3656 (  5292 PWs)   bands (ev):

   -68.2648 -68.2648 -35.0539 -35.0539 -35.0452 -35.0452 -35.0210 -35.0210
   -18.4499 -18.4495 -14.3338 -14.3338 -14.2544 -14.2544 -14.0695 -14.0693
    -4.0980  -4.0978  -2.0524  -2.0523  -1.7309  -1.7308  -1.2568  -1.2566
     0.8530   0.8530   1.1391   1.1391   1.5455   1.5456   2.3703   2.3704
     2.5181   2.5182   3.9270   3.9271   4.0510   4.0511   4.2622   4.2623
    13.1277  13.1277  13.4163  13.4163  14.0015  14.0017  14.3832  14.3835

          k = 0.2501-0.1642 0.0000 (  5295 PWs)   bands (ev):

   -68.2653 -68.2644 -35.0637 -35.0467 -35.0442 -35.0435 -35.0217 -35.0201
   -18.5665 -18.3982 -14.4128 -14.1888 -14.1734 -14.1555 -14.0890 -14.0865
    -4.8540  -4.1619  -2.0621  -2.0325  -1.6239  -1.4132  -1.4076  -1.3394
     0.6994   0.7752   1.1344   1.6646   1.7292   1.9960   2.1538   2.3018
     2.4199   2.9057   3.7069   3.7945   4.0104   4.3014   4.4272   4.5261
    11.5983  12.8039  12.8236  13.1377  13.8856  14.0490  14.3166  14.4067

          k = 0.2501-0.1642 0.1828 (  5273 PWs)   bands (ev):

   -68.2652 -68.2645 -35.0608 -35.0470 -35.0463 -35.0440 -35.0215 -35.0203
   -18.5427 -18.4238 -14.3769 -14.2115 -14.1693 -14.1455 -14.1069 -14.0967
    -4.7601  -4.2736  -2.0711  -1.9317  -1.5896  -1.4915  -1.3898  -1.3793
     0.8258   0.8288   1.2637   1.4907   1.5429   1.8096   2.1986   2.3542
     2.5791   2.7649   3.8238   3.8320   3.9720   4.2819   4.4201   4.4807
    11.8027  12.6424  12.9590  13.3917  13.7593  14.1256  14.3730  14.4072

          k = 0.2501-0.1642-0.3656 (  5294 PWs)   bands (ev):

   -68.2648 -68.2648 -35.0539 -35.0539 -35.0451 -35.0451 -35.0209 -35.0209
   -18.4843 -18.4839 -14.2916 -14.2914 -14.1411 -14.1410 -14.1214 -14.1211
    -4.5254  -4.5252  -1.9686  -1.9685  -1.4976  -1.4973  -1.4481  -1.4481
     1.1215   1.1217   1.1346   1.1347   1.5079   1.5080   2.4835   2.4836
     2.5232   2.5233   3.8944   3.8945   4.0915   4.0915   4.4386   4.4387
    12.2471  12.2473  13.3245  13.3246  14.0317  14.0320  14.2695  14.2697

          k =-0.4999-0.2164 0.0000 (  5272 PWs)   bands (ev):

   -68.2653 -68.2644 -35.0636 -35.0468 -35.0442 -35.0435 -35.0217 -35.0201
   -18.4918 -18.4295 -14.4061 -14.2539 -14.2534 -14.2076 -14.0978 -14.0507
    -4.0736  -3.9728  -2.2132  -2.0157  -1.8043  -1.7316  -1.3374  -1.3364
     0.9446   0.9650   1.2952   1.3654   1.5593   1.7517   2.1485   2.3030
     2.4281   2.5614   3.3947   3.8652   3.9615   4.1545   4.1717   4.2462
    12.6467  13.2389  13.5533  13.7719  14.0742  14.1024  14.1570  14.3682

          k =-0.4999-0.2164 0.1828 (  5298 PWs)   bands (ev):

   -68.2652 -68.2645 -35.0608 -35.0470 -35.0463 -35.0440 -35.0215 -35.0203
   -18.4824 -18.4383 -14.4124 -14.3210 -14.2176 -14.1666 -14.0942 -14.0590
    -4.0572  -3.9854  -2.1835  -2.0476  -1.7890  -1.7527  -1.3062  -1.2919
     0.8470   0.8931   1.3747   1.3809   1.5762   1.7828   2.1360   2.1813
     2.4973   2.5008   3.5104   3.8979   3.9073   4.1090   4.1625   4.2125
    12.9191  13.3052  13.7415  13.8496  13.9782  14.1125  14.2251  14.4461

          k =-0.4999-0.2164-0.3656 (  5296 PWs)   bands (ev):

   -68.2648 -68.2648 -35.0539 -35.0539 -35.0452 -35.0452 -35.0209 -35.0209
   -18.4602 -18.4598 -14.3898 -14.3898 -14.1673 -14.1672 -14.0792 -14.0788
    -4.0194  -4.0193  -2.1153  -2.1151  -1.7734  -1.7733  -1.2634  -1.2632
     0.8269   0.8269   1.3467   1.3468   1.6829   1.6831   2.2893   2.2895
     2.3620   2.3620   3.7376   3.7377   4.0001   4.0003   4.1663   4.1664
    13.3429  13.3431  13.8423  13.8424  14.0555  14.0557  14.4234  14.4236

          k =-0.5000 0.0560 0.0000 (  5324 PWs)   bands (ev):

   -68.2653 -68.2644 -35.0636 -35.0468 -35.0442 -35.0435 -35.0218 -35.0202
   -18.4852 -18.4150 -14.3819 -14.3472 -14.2172 -14.1504 -14.1303 -14.0832
    -4.2900  -3.9143  -2.2067  -2.1267  -1.7609  -1.5284  -1.4573  -1.0696
     0.5696   0.9523   1.3850   1.4429   1.4548   1.8719   2.0573   2.3184
     2.3691   2.7101   3.6601   3.9039   4.0448   4.1375   4.1456   4.4700
    12.6596  12.8659  13.2984  13.6352  13.8642  14.0805  14.2241  14.3530

          k =-0.5000 0.0560 0.1828 (  5297 PWs)   bands (ev):

   -68.2652 -68.2645 -35.0608 -35.0470 -35.0463 -35.0440 -35.0216 -35.0204
   -18.4747 -18.4251 -14.3671 -14.3368 -14.2307 -14.2147 -14.0891 -14.0741
    -4.2330  -3.9671  -2.1466  -2.0803  -1.7703  -1.5984  -1.4008  -1.1184
     0.6603   0.9539   1.1376   1.3984   1.5483   1.6384   2.1968   2.3595
     2.4811   2.6145   3.7605   3.9404   4.0387   4.1091   4.1752   4.4002
    12.8111  13.0093  13.3467  13.7330  13.8552  14.0715  14.1876  14.3310

          k =-0.5000 0.0560-0.3656 (  5292 PWs)   bands (ev):

   -68.2648 -68.2648 -35.0539 -35.0539 -35.0452 -35.0452 -35.0210 -35.0210
   -18.4499 -18.4495 -14.3338 -14.3338 -14.2544 -14.2544 -14.0695 -14.0693
    -4.0980  -4.0978  -2.0524  -2.0523  -1.7309  -1.7308  -1.2568  -1.2566
     0.8530   0.8530   1.1391   1.1391   1.5455   1.5456   2.3703   2.3704
     2.5181   2.5181   3.9270   3.9271   4.0510   4.0511   4.2622   4.2623
    13.1277  13.1277  13.4163  13.4163  14.0015  14.0017  14.3832  14.3835

          k =-0.4997-0.7611 0.0000 (  5328 PWs)   bands (ev):

   -68.2653 -68.2644 -35.0636 -35.0468 -35.0442 -35.0435 -35.0219 -35.0203
   -18.4710 -18.4081 -14.3831 -14.3145 -14.2754 -14.1774 -14.1048 -14.0950
    -4.3941  -3.9846  -2.4088  -2.2036  -1.3849  -1.3487  -1.2479  -1.1137
     0.4345   0.6355   1.4080   1.4211   1.5974   1.8462   1.8998   2.1220
     2.4569   2.8074   3.8733   4.1276   4.1434   4.1588   4.1932   4.6934
    11.9747  12.8236  12.8764  13.5681  13.8784  13.8796  14.2363  14.2717

          k =-0.4997-0.7611 0.1828 (  5294 PWs)   bands (ev):

   -68.2652 -68.2645 -35.0608 -35.0470 -35.0463 -35.0440 -35.0217 -35.0205
   -18.4617 -18.4171 -14.3830 -14.3012 -14.2698 -14.1655 -14.1272 -14.1072
    -4.3312  -4.0407  -2.3075  -2.1425  -1.4542  -1.4059  -1.2284  -1.1336
     0.5518   0.6227   1.0426   1.2270   1.5905   1.8058   2.2081   2.2337
     2.5085   2.6806   4.0127   4.1412   4.1447   4.1608   4.2167   4.6064
    12.2010  12.8767  12.8784  13.5257  13.9549  14.0791  14.1222  14.2434

          k =-0.4997-0.7611-0.3656 (  5256 PWs)   bands (ev):

   -68.2648 -68.2648 -35.0539 -35.0539 -35.0451 -35.0451 -35.0211 -35.0211
   -18.4395 -18.4390 -14.3521 -14.3520 -14.1903 -14.1902 -14.1366 -14.1364
    -4.1826  -4.1825  -2.1273  -2.1273  -1.5103  -1.5102  -1.1813  -1.1810
     0.7076   0.7077   0.8592   0.8593   1.6673   1.6675   2.4471   2.4472
     2.4817   2.4817   4.1436   4.1438   4.1544   4.1545   4.3837   4.3838
    12.6982  12.6982  13.0707  13.0708  14.1218  14.1221  14.3675  14.3677

     the Fermi energy is     9.7267 ev

!    total energy              =    -632.70721202 Ry
     estimated scf accuracy    <          2.4E-10 Ry
     smearing contrib. (-TS)   =      -0.00000000 Ry
     internal energy E=F+TS    =    -632.70721202 Ry

     The total energy is F=E-TS. E is the sum of the following terms:
     one-electron contribution =    -312.13431219 Ry
     hartree contribution      =     190.02570754 Ry
     xc contribution           =    -111.84646866 Ry
     ewald contribution        =    -322.67572676 Ry
     one-center paw contrib.   =     -76.07641195 Ry

     convergence has been achieved in  13 iterations

     Forces acting on atoms (cartesian axes, Ry/au):

     atom    1 type  1   force =     0.00000000    0.00000000    0.00000000
     atom    2 type  1   force =     0.00000000    0.00000000    0.00000000
     atom    3 type  2   force =     0.00443702   -0.00291332    0.00000000
     atom    4 type  2   force =    -0.00443702    0.00291332    0.00000000
     atom    5 type  3   force =     0.00303981   -0.03353913    0.00000000
     atom    6 type  3   force =    -0.00303981    0.03353913    0.00000000
     atom    7 type  3   force =    -0.03198317   -0.01054582    0.00000000
     atom    8 type  3   force =     0.03198317    0.01054582    0.00000000
     atom    9 type  3   force =    -0.01707116    0.01120776    0.03652165
     atom   10 type  3   force =     0.01707116   -0.01120776    0.03652165
     atom   11 type  3   force =     0.01707116   -0.01120776   -0.03652165
     atom   12 type  3   force =    -0.01707116    0.01120776   -0.03652165

     Total force =     0.107686     Total SCF correction =     0.000062


     Computing stress (Cartesian axis) and pressure

          total   stress  (Ry/bohr**3)                   (kbar)     P=       81.91
   0.00054108  -0.00002853   0.00000000           79.59       -4.20        0.00
  -0.00002853   0.00051635   0.00000000           -4.20       75.96        0.00
   0.00000000   0.00000000   0.00061308            0.00        0.00       90.19


     BFGS Geometry Optimization
     Energy error            =      0.0E+00
     Gradient error          =      3.7E-02
     Cell gradient error     =      6.1E-04


     number of scf cycles    =   1
     number of bfgs steps    =   0

     enthalpy new            =    -632.7072120159 Ry

     new trust radius        =       0.0913161574 bohr
     new conv_thr            =       0.0000000100 Ry

     new unit-cell volume =    924.99040 a.u.^3 (   137.06944 Ang^3 )
     density =      2.91625 g/cm^3

CELL_PARAMETERS (angstrom)
   4.777633447  -0.001451848  -0.000000000
  -1.900881982   4.383198971   0.000000000
   0.000000000   0.000000000   6.546269029

ATOMIC_POSITIONS (angstrom)
Mg            0.0000000000        0.0000000000        0.0000000000
Mg            0.0000000000        0.0000000000        3.2731345146
S             0.4454334321        2.8427705745        4.9097017719
S             2.4313180333        1.5389765478        1.6365672573
O             0.5123896289        1.3136923360        4.9097017719
O             2.3643618365        3.0680547862        1.6365672573
O             1.0016720964        0.9924631544        1.6365672573
O             1.8750793690        3.3892839679        4.9097017719
O            -0.2453771603        3.2963091402        6.1568145980
O             3.1221286257        1.0854379820        2.8836866297
O             3.1221286257        1.0854379820        0.3894478849
O            -0.2453771603        3.2963091402        3.6625889458



     Writing output data file ./out2/MgO4S.save/
     NEW-OLD atomic charge density approx. for the potential

     Check: negative core charge=   -0.000003
     extrapolated charge   83.22554, renormalised to   80.00000

     total cpu time spent up to now is      473.3 secs

     Self-consistent Calculation

     iteration #  1     ecut=    50.00 Ry     beta= 0.30
     Davidson diagonalization with overlap
     ethr =  1.00E-06,  avg # of iterations = 12.5

     total cpu time spent up to now is      556.6 secs

     total energy              =    -632.35742346 Ry
     estimated scf accuracy    <       0.29517097 Ry

     iteration #  2     ecut=    50.00 Ry     beta= 0.30
     Davidson diagonalization with overlap
     ethr =  3.69E-04,  avg # of iterations =  4.5

     total cpu time spent up to now is      599.1 secs

     total energy              =    -632.72737282 Ry
     estimated scf accuracy    <       0.13746066 Ry

     iteration #  3     ecut=    50.00 Ry     beta= 0.30
     Davidson diagonalization with overlap
     ethr =  1.72E-04,  avg # of iterations =  2.0

     total cpu time spent up to now is      626.0 secs

     total energy              =    -632.70616172 Ry
     estimated scf accuracy    <       0.05331902 Ry

     iteration #  4     ecut=    50.00 Ry     beta= 0.30
     Davidson diagonalization with overlap
     ethr =  6.66E-05,  avg # of iterations =  2.0

     total cpu time spent up to now is      654.5 secs

     total energy              =    -632.71259906 Ry
     estimated scf accuracy    <       0.00385663 Ry

     iteration #  5     ecut=    50.00 Ry     beta= 0.30
     Davidson diagonalization with overlap
     ethr =  4.82E-06,  avg # of iterations =  5.4

     total cpu time spent up to now is      682.7 secs

     total energy              =    -632.71089454 Ry
     estimated scf accuracy    <       0.00219346 Ry

     iteration #  6     ecut=    50.00 Ry     beta= 0.30
     Davidson diagonalization with overlap
     ethr =  2.74E-06,  avg # of iterations =  2.8

     total cpu time spent up to now is      715.8 secs

     total energy              =    -632.71146912 Ry
     estimated scf accuracy    <       0.00001853 Ry

     iteration #  7     ecut=    50.00 Ry     beta= 0.30
     Davidson diagonalization with overlap
     ethr =  2.32E-08,  avg # of iterations =  5.0

     total cpu time spent up to now is      760.8 secs

     total energy              =    -632.71142681 Ry
     estimated scf accuracy    <       0.00016533 Ry

     iteration #  8     ecut=    50.00 Ry     beta= 0.30
     Davidson diagonalization with overlap
     ethr =  2.32E-08,  avg # of iterations =  3.9

     total cpu time spent up to now is      800.8 secs

     total energy              =    -632.71147069 Ry
     estimated scf accuracy    <       0.00000700 Ry

     iteration #  9     ecut=    50.00 Ry     beta= 0.30
     Davidson diagonalization with overlap
     ethr =  8.75E-09,  avg # of iterations =  2.0

     total cpu time spent up to now is      831.2 secs

     total energy              =    -632.71147169 Ry
     estimated scf accuracy    <       0.00000138 Ry

     iteration # 10     ecut=    50.00 Ry     beta= 0.30
     Davidson diagonalization with overlap
     ethr =  1.73E-09,  avg # of iterations =  1.9

     total cpu time spent up to now is      857.5 secs

     total energy              =    -632.71147175 Ry
     estimated scf accuracy    <       0.00000058 Ry

     iteration # 11     ecut=    50.00 Ry     beta= 0.30
     Davidson diagonalization with overlap
     ethr =  7.20E-10,  avg # of iterations =  2.0

     total cpu time spent up to now is      888.1 secs

     End of self-consistent calculation

          k = 0.0000 0.0000 0.0000 (  5241 PWs)   bands (ev):

   -68.8044 -68.8037 -35.5982 -35.5843 -35.5820 -35.5816 -35.5575 -35.5561
   -18.4566 -18.2275 -14.4621 -14.2964 -14.2462 -14.1732 -14.1717 -14.0967
    -5.7394  -4.9803  -2.1984  -2.1786  -1.9510  -1.8502  -1.8390  -1.7441
     0.3624   0.9404   1.0546   1.3216   1.3760   1.6618   1.9497   2.2892
     2.4959   2.6970   3.1679   3.1903   3.4028   3.9840   4.1041   4.2138
     9.5250  11.3969  11.7376  12.6822  13.0642  13.0851  13.0961  13.2117

          k = 0.0000 0.0000 0.1800 (  5279 PWs)   bands (ev):

   -68.8043 -68.8038 -35.5959 -35.5844 -35.5839 -35.5820 -35.5573 -35.5563
   -18.4250 -18.2632 -14.4099 -14.2892 -14.2536 -14.1864 -14.1694 -14.1359
    -5.6365  -5.1020  -2.2155  -2.1376  -2.0761  -1.8989  -1.7494  -1.7098
     0.5912   1.0595   1.1029   1.2868   1.3307   1.8051   1.9879   2.0061
     2.3992   2.5312   3.1665   3.2829   3.3358   3.8044   4.1836   4.2224
     9.8597  11.1721  11.9902  12.6156  12.9419  13.1617  13.2327  13.2410

          k = 0.0000 0.0000-0.3600 (  5288 PWs)   bands (ev):

   -68.8040 -68.8040 -35.5901 -35.5901 -35.5829 -35.5829 -35.5568 -35.5568
   -18.3464 -18.3460 -14.2870 -14.2867 -14.2716 -14.2713 -14.1631 -14.1628
    -5.3785  -5.3784  -2.1914  -2.1914  -2.0277  -2.0274  -1.6872  -1.6872
     1.0678   1.0678   1.2024   1.2026   1.4255   1.4256   2.1562   2.1563
     2.1742   2.1744   3.2191   3.2192   3.5221   3.5222   4.2248   4.2250
    10.5678  10.5680  12.5003  12.5005  12.9215  12.9215  13.2434  13.2437

          k = 0.0001 0.2689 0.0000 (  5287 PWs)   bands (ev):

   -68.8044 -68.8037 -35.5982 -35.5843 -35.5820 -35.5816 -35.5575 -35.5562
   -18.3932 -18.2253 -14.4237 -14.4069 -14.3205 -14.1868 -14.1680 -14.1485
    -5.3174  -4.7432  -2.3265  -2.2255  -2.0447  -1.9854  -1.8850  -1.5166
     0.4880   0.9076   0.9095   1.3716   1.6249   1.6260   1.8093   2.0531
     2.2330   2.4623   3.1334   3.3202   3.5382   3.8084   3.9337   3.9501
    10.4512  11.8409  12.1853  12.6774  12.7581  12.9732  13.0986  13.1758

          k = 0.0001 0.2689 0.1800 (  5289 PWs)   bands (ev):

   -68.8043 -68.8038 -35.5959 -35.5844 -35.5839 -35.5820 -35.5573 -35.5564
   -18.3695 -18.2508 -14.4279 -14.3901 -14.3058 -14.1920 -14.1795 -14.1584
    -5.2388  -4.8344  -2.3181  -2.2435  -2.0686  -2.0265  -1.7676  -1.5406
     0.6432   0.9011   1.0168   1.2751   1.4776   1.6902   1.8245   1.9440
     2.2812   2.3608   3.2012   3.2945   3.5168   3.7675   3.8990   3.9642
    10.7143  11.7059  12.3789  12.6361  12.8599  12.9860  13.0825  13.2399

          k = 0.0001 0.2689-0.3600 (  5294 PWs)   bands (ev):

   -68.8040 -68.8040 -35.5901 -35.5901 -35.5830 -35.5830 -35.5569 -35.5569
   -18.3112 -18.3108 -14.4074 -14.4073 -14.2467 -14.2466 -14.1728 -14.1726
    -5.0428  -5.0426  -2.2860  -2.2858  -2.0649  -2.0649  -1.6229  -1.6228
     0.9579   0.9579   1.1282   1.1283   1.3333   1.3334   2.0917   2.0919
     2.1596   2.1597   3.2719   3.2720   3.5955   3.5955   3.9360   3.9361
    11.2684  11.2686  12.6300  12.6300  13.0041  13.0043  13.1116  13.1118

          k =-0.0002-0.5378 0.0000 (  5272 PWs)   bands (ev):

   -68.8044 -68.8037 -35.5982 -35.5844 -35.5820 -35.5816 -35.5576 -35.5562
   -18.3055 -18.2448 -14.5600 -14.3802 -14.2775 -14.2744 -14.2003 -14.1673
    -4.6951  -4.6115  -2.5152  -2.3365  -2.1061  -2.0428  -1.6525  -1.6506
     0.7323   0.7336   1.0685   1.1714   1.3858   1.4895   1.8782   2.0591
     2.1208   2.2650   3.0081   3.4603   3.5580   3.7362   3.7382   3.8463
    11.6566  11.9080  12.3556  12.6973  12.8844  12.9737  12.9997  13.2406

          k =-0.0002-0.5378 0.1800 (  5298 PWs)   bands (ev):

   -68.8043 -68.8038 -35.5958 -35.5844 -35.5840 -35.5820 -35.5574 -35.5564
   -18.2963 -18.2534 -14.5515 -14.4366 -14.2551 -14.2466 -14.1965 -14.1747
    -4.6806  -4.6210  -2.4894  -2.3668  -2.0928  -2.0618  -1.6242  -1.6128
     0.6438   0.6798   1.1494   1.1617   1.3895   1.5434   1.8822   1.9058
     2.1925   2.2081   3.1281   3.4907   3.5093   3.6926   3.7334   3.8071
    11.8517  12.0055  12.4972  12.6984  12.8823  12.8861  13.0836  13.2873

          k =-0.0002-0.5378-0.3600 (  5296 PWs)   bands (ev):

   -68.8040 -68.8040 -35.5901 -35.5901 -35.5830 -35.5830 -35.5569 -35.5569
   -18.2747 -18.2743 -14.5117 -14.5116 -14.2295 -14.2292 -14.1903 -14.1899
    -4.6484  -4.6483  -2.4292  -2.4289  -2.0798  -2.0798  -1.5875  -1.5873
     0.6303   0.6304   1.1079   1.1080   1.4936   1.4938   1.9994   1.9995
     2.0735   2.0735   3.3501   3.3502   3.5885   3.5887   3.7486   3.7488
    12.0974  12.0976  12.6764  12.6765  12.8201  12.8202  13.2584  13.2587

          k = 0.2467 0.1070 0.0000 (  5287 PWs)   bands (ev):

   -68.8044 -68.8037 -35.5982 -35.5843 -35.5820 -35.5816 -35.5575 -35.5562
   -18.3932 -18.2253 -14.4237 -14.4069 -14.3205 -14.1868 -14.1680 -14.1485
    -5.3174  -4.7432  -2.3265  -2.2255  -2.0447  -1.9854  -1.8850  -1.5166
     0.4880   0.9076   0.9095   1.3716   1.6249   1.6260   1.8093   2.0531
     2.2330   2.4623   3.1334   3.3202   3.5382   3.8084   3.9337   3.9501
    10.4512  11.8409  12.1853  12.6774  12.7581  12.9732  13.0986  13.1758

          k = 0.2467 0.1070 0.1800 (  5289 PWs)   bands (ev):

   -68.8043 -68.8038 -35.5959 -35.5844 -35.5839 -35.5820 -35.5573 -35.5564
   -18.3695 -18.2508 -14.4279 -14.3901 -14.3058 -14.1920 -14.1795 -14.1584
    -5.2388  -4.8344  -2.3181  -2.2435  -2.0686  -2.0265  -1.7676  -1.5406
     0.6432   0.9011   1.0168   1.2751   1.4776   1.6902   1.8245   1.9440
     2.2812   2.3608   3.2012   3.2945   3.5168   3.7675   3.8990   3.9642
    10.7143  11.7059  12.3789  12.6361  12.8599  12.9860  13.0825  13.2399

          k = 0.2467 0.1070-0.3600 (  5294 PWs)   bands (ev):

   -68.8040 -68.8040 -35.5901 -35.5901 -35.5830 -35.5830 -35.5569 -35.5569
   -18.3112 -18.3108 -14.4074 -14.4073 -14.2467 -14.2466 -14.1728 -14.1726
    -5.0428  -5.0426  -2.2860  -2.2858  -2.0649  -2.0649  -1.6229  -1.6228
     0.9579   0.9579   1.1282   1.1283   1.3333   1.3334   2.0917   2.0919
     2.1596   2.1597   3.2719   3.2720   3.5955   3.5955   3.9360   3.9361
    11.2684  11.2686  12.6300  12.6300  13.0041  13.0043  13.1116  13.1118

          k = 0.2468 0.3759 0.0000 (  5315 PWs)   bands (ev):

   -68.8044 -68.8037 -35.5982 -35.5844 -35.5820 -35.5816 -35.5576 -35.5562
   -18.3121 -18.2382 -14.5486 -14.3791 -14.2973 -14.2544 -14.2258 -14.1554
    -4.7293  -4.5468  -2.5437  -2.3662  -2.2682  -1.8466  -1.6887  -1.6211
     0.3497   0.9256   1.2699   1.3187   1.5167   1.5550   1.5613   1.9973
     2.1985   2.2477   3.3277   3.3715   3.4532   3.6076   3.7206   3.7956
    11.6009  12.2908  12.4844  12.5297  12.6523  12.8970  13.3350  13.3353

          k = 0.2468 0.3759 0.1800 (  5315 PWs)   bands (ev):

   -68.8043 -68.8038 -35.5958 -35.5844 -35.5840 -35.5820 -35.5574 -35.5564
   -18.3011 -18.2488 -14.5341 -14.4319 -14.2694 -14.2644 -14.2099 -14.1523
    -4.6994  -4.5710  -2.5230  -2.4109  -2.1920  -1.9118  -1.6609  -1.6132
     0.4980   0.9224   1.0672   1.2694   1.3068   1.5176   1.9066   1.9767
     2.1797   2.2046   3.3329   3.4212   3.5257   3.5500   3.6737   3.7733
    11.7683  12.2258  12.5351  12.6970  12.7956  12.8819  13.2242  13.3570

          k = 0.2468 0.3759-0.3600 (  5312 PWs)   bands (ev):

   -68.8040 -68.8040 -35.5901 -35.5901 -35.5830 -35.5830 -35.5569 -35.5569
   -18.2749 -18.2745 -14.4939 -14.4937 -14.2705 -14.2705 -14.1674 -14.1672
    -4.6324  -4.6323  -2.4721  -2.4718  -2.0528  -2.0527  -1.6191  -1.6189
     0.7937   0.7937   1.0247   1.0248   1.3669   1.3671   2.0374   2.0376
     2.1592   2.1592   3.3848   3.3849   3.5762   3.5764   3.6735   3.6736
    12.0552  12.0554  12.7303  12.7304  12.8763  12.8764  13.2735  13.2737

          k = 0.2465-0.4308 0.0000 (  5324 PWs)   bands (ev):

   -68.8044 -68.8037 -35.5982 -35.5844 -35.5820 -35.5816 -35.5577 -35.5563
   -18.3004 -18.2303 -14.5230 -14.3701 -14.3525 -14.2709 -14.2067 -14.1723
    -4.9019  -4.5688  -2.5024  -2.4408  -2.0799  -1.8274  -1.7724  -1.4021
     0.3865   0.7689   1.1567   1.1757   1.2708   1.6174   1.7812   2.0302
     2.1193   2.4645   3.2559   3.4751   3.6310   3.7136   3.7330   4.0733
    11.6037  11.6987  11.9950  12.3560  12.6144  12.9732  13.1198  13.1896

          k = 0.2465-0.4308 0.1800 (  5297 PWs)   bands (ev):

   -68.8043 -68.8038 -35.5958 -35.5844 -35.5840 -35.5820 -35.5575 -35.5565
   -18.2900 -18.2404 -14.5031 -14.3966 -14.3458 -14.2942 -14.1951 -14.1631
    -4.8500  -4.6140  -2.4522  -2.3988  -2.0857  -1.9058  -1.7078  -1.4471
     0.4750   0.7332   0.9258   1.1756   1.3260   1.4348   1.9158   2.1045
     2.1739   2.3629   3.3537   3.5074   3.6254   3.6875   3.7713   4.0064
    11.6971  11.8239  11.9981  12.4537  12.7015  12.9368  13.0628  13.1462

          k = 0.2465-0.4308-0.3600 (  5292 PWs)   bands (ev):

   -68.8040 -68.8040 -35.5901 -35.5901 -35.5830 -35.5830 -35.5570 -35.5570
   -18.2653 -18.2649 -14.4521 -14.4519 -14.3283 -14.3283 -14.1698 -14.1698
    -4.7287  -4.7286  -2.3742  -2.3741  -2.0377  -2.0376  -1.5734  -1.5732
     0.6472   0.6473   0.9051   0.9051   1.3686   1.3687   2.0843   2.0843
     2.2411   2.2412   3.4996   3.4997   3.6374   3.6375   3.8692   3.8693
    11.8589  11.8591  12.2302  12.2303  12.8472  12.8475  13.1455  13.1457

          k = 0.2466-0.1619 0.0000 (  5295 PWs)   bands (ev):

   -68.8044 -68.8037 -35.5982 -35.5843 -35.5820 -35.5816 -35.5576 -35.5562
   -18.3832 -18.2164 -14.4344 -14.3172 -14.2934 -14.2795 -14.2531 -14.1117
    -5.4097  -4.7860  -2.3752  -2.3718  -1.9032  -1.7541  -1.7232  -1.6485
     0.5215   0.5963   0.8585   1.4709   1.4823   1.7633   1.8818   2.0368
     2.1015   2.6581   3.2825   3.3893   3.5945   3.8620   4.0070   4.1548
    10.4345  11.4928  11.8561  12.1665  12.5284  12.9485  13.1797  13.2278

          k = 0.2466-0.1619 0.1800 (  5273 PWs)   bands (ev):

   -68.8043 -68.8038 -35.5958 -35.5844 -35.5839 -35.5820 -35.5574 -35.5564
   -18.3597 -18.2418 -14.4053 -14.3079 -14.3032 -14.2667 -14.2626 -14.1443
    -5.3231  -4.8837  -2.3943  -2.2767  -1.8715  -1.8123  -1.7077  -1.6922
     0.6221   0.6383   1.0177   1.2582   1.3328   1.5580   1.9417   2.0849
     2.2705   2.5010   3.4194   3.4248   3.5588   3.8458   4.0093   4.1000
    10.6109  11.3477  11.9486  12.4013  12.5258  13.0081  13.1504  13.2010

          k = 0.2466-0.1619-0.3600 (  5294 PWs)   bands (ev):

   -68.8040 -68.8040 -35.5901 -35.5901 -35.5830 -35.5830 -35.5569 -35.5569
   -18.3018 -18.3014 -14.3458 -14.3458 -14.2855 -14.2852 -14.2142 -14.2142
    -5.1088  -5.1087  -2.3074  -2.3073  -1.7879  -1.7876  -1.7718  -1.7718
     0.8863   0.8864   0.9261   0.9262   1.2904   1.2904   2.2138   2.2139
     2.2299   2.2300   3.4873   3.4874   3.6847   3.6847   4.0341   4.0342
    10.9964  10.9966  12.2368  12.2369  12.9118  12.9120  13.1201  13.1204

          k =-0.4934-0.2140 0.0000 (  5272 PWs)   bands (ev):

   -68.8044 -68.8037 -35.5982 -35.5844 -35.5820 -35.5816 -35.5576 -35.5562
   -18.3055 -18.2448 -14.5600 -14.3802 -14.2775 -14.2744 -14.2003 -14.1673
    -4.6951  -4.6115  -2.5152  -2.3365  -2.1061  -2.0428  -1.6525  -1.6506
     0.7323   0.7336   1.0685   1.1714   1.3858   1.4895   1.8782   2.0591
     2.1208   2.2650   3.0081   3.4603   3.5580   3.7362   3.7382   3.8463
    11.6566  11.9080  12.3556  12.6973  12.8844  12.9737  12.9997  13.2406

          k =-0.4934-0.2140 0.1800 (  5298 PWs)   bands (ev):

   -68.8043 -68.8038 -35.5958 -35.5844 -35.5840 -35.5820 -35.5574 -35.5564
   -18.2963 -18.2534 -14.5515 -14.4366 -14.2551 -14.2466 -14.1965 -14.1747
    -4.6806  -4.6210  -2.4894  -2.3668  -2.0928  -2.0618  -1.6242  -1.6128
     0.6438   0.6798   1.1494   1.1617   1.3895   1.5434   1.8822   1.9058
     2.1925   2.2081   3.1281   3.4907   3.5093   3.6926   3.7334   3.8071
    11.8517  12.0055  12.4972  12.6984  12.8823  12.8861  13.0836  13.2873

          k =-0.4934-0.2140-0.3600 (  5296 PWs)   bands (ev):

   -68.8040 -68.8040 -35.5901 -35.5901 -35.5830 -35.5830 -35.5569 -35.5569
   -18.2747 -18.2743 -14.5117 -14.5115 -14.2295 -14.2292 -14.1903 -14.1899
    -4.6484  -4.6483  -2.4292  -2.4289  -2.0798  -2.0798  -1.5875  -1.5873
     0.6303   0.6304   1.1079   1.1081   1.4936   1.4938   1.9994   1.9995
     2.0735   2.0735   3.3501   3.3502   3.5885   3.5887   3.7486   3.7488
    12.0974  12.0976  12.6764  12.6765  12.8201  12.8202  13.2584  13.2587

          k =-0.4933 0.0549 0.0000 (  5324 PWs)   bands (ev):

   -68.8044 -68.8037 -35.5982 -35.5844 -35.5820 -35.5816 -35.5577 -35.5563
   -18.3004 -18.2303 -14.5230 -14.3701 -14.3525 -14.2709 -14.2067 -14.1723
    -4.9019  -4.5688  -2.5024  -2.4408  -2.0799  -1.8274  -1.7724  -1.4021
     0.3865   0.7689   1.1567   1.1757   1.2708   1.6174   1.7812   2.0302
     2.1193   2.4645   3.2559   3.4751   3.6310   3.7136   3.7330   4.0733
    11.6037  11.6987  11.9950  12.3560  12.6144  12.9732  13.1198  13.1896

          k =-0.4933 0.0549 0.1800 (  5297 PWs)   bands (ev):

   -68.8043 -68.8038 -35.5958 -35.5844 -35.5840 -35.5820 -35.5575 -35.5565
   -18.2900 -18.2404 -14.5031 -14.3966 -14.3458 -14.2942 -14.1951 -14.1631
    -4.8500  -4.6140  -2.4522  -2.3988  -2.0857  -1.9058  -1.7078  -1.4471
     0.4750   0.7332   0.9258   1.1756   1.3260   1.4348   1.9158   2.1045
     2.1739   2.3629   3.3537   3.5074   3.6254   3.6875   3.7713   4.0064
    11.6971  11.8239  11.9981  12.4537  12.7015  12.9368  13.0628  13.1462

          k =-0.4933 0.0549-0.3600 (  5292 PWs)   bands (ev):

   -68.8040 -68.8040 -35.5901 -35.5901 -35.5830 -35.5830 -35.5570 -35.5570
   -18.2653 -18.2649 -14.4521 -14.4519 -14.3283 -14.3283 -14.1698 -14.1698
    -4.7287  -4.7286  -2.3742  -2.3741  -2.0377  -2.0376  -1.5734  -1.5732
     0.6472   0.6473   0.9051   0.9051   1.3686   1.3687   2.0843   2.0843
     2.2411   2.2412   3.4996   3.4997   3.6374   3.6375   3.8692   3.8693
    11.8589  11.8591  12.2302  12.2303  12.8472  12.8475  13.1455  13.1457

          k =-0.4936-0.7518 0.0000 (  5328 PWs)   bands (ev):

   -68.8044 -68.8037 -35.5982 -35.5843 -35.5820 -35.5816 -35.5577 -35.5564
   -18.2875 -18.2238 -14.4155 -14.4064 -14.3844 -14.3366 -14.2611 -14.1266
    -5.0096  -4.6280  -2.7002  -2.5280  -1.7008  -1.6852  -1.5621  -1.4473
     0.2625   0.4623   1.1752   1.2014   1.4171   1.5395   1.6085   1.8835
     2.2046   2.5917   3.4537   3.6910   3.7193   3.7408   3.7695   4.3003
    11.0608  11.3467  11.7060  12.2066  12.7558  12.7883  13.0786  13.1419

          k =-0.4936-0.7518 0.1800 (  5294 PWs)   bands (ev):

   -68.8043 -68.8038 -35.5958 -35.5844 -35.5839 -35.5820 -35.5575 -35.5566
   -18.2781 -18.2330 -14.4461 -14.4017 -14.3319 -14.3257 -14.2723 -14.1565
    -4.9495  -4.6788  -2.6106  -2.4751  -1.7656  -1.7382  -1.5453  -1.4642
     0.3745   0.4358   0.8040   1.0182   1.4261   1.5684   1.8977   1.9910
     2.2202   2.4498   3.5923   3.7028   3.7207   3.7422   3.8051   4.2160
    11.2702  11.4077  11.6520  12.2414  12.8533  12.8913  12.9345  13.1100

          k =-0.4936-0.7518-0.3600 (  5256 PWs)   bands (ev):

   -68.8040 -68.8040 -35.5901 -35.5901 -35.5830 -35.5830 -35.5571 -35.5571
   -18.2556 -18.2552 -14.4348 -14.4346 -14.2993 -14.2990 -14.2352 -14.2350
    -4.8097  -4.8095  -2.4577  -2.4577  -1.8251  -1.8251  -1.5049  -1.5046
     0.4955   0.4957   0.6681   0.6682   1.4858   1.4860   2.1677   2.1678
     2.2046   2.2047   3.7027   3.7029   3.7327   3.7328   3.9972   3.9973
    11.5224  11.5226  11.8186  11.8188  12.9972  12.9975  13.0357  13.0359

     the Fermi energy is     8.3410 ev

!    total energy              =    -632.71147214 Ry
     estimated scf accuracy    <          4.8E-09 Ry
     smearing contrib. (-TS)   =      -0.00000000 Ry
     internal energy E=F+TS    =    -632.71147214 Ry

     The total energy is F=E-TS. E is the sum of the following terms:
     one-electron contribution =    -316.37016158 Ry
     hartree contribution      =     190.92197887 Ry
     xc contribution           =    -111.32767239 Ry
     ewald contribution        =    -319.82728133 Ry
     one-center paw contrib.   =     -76.10833570 Ry

     convergence has been achieved in  11 iterations

     Forces acting on atoms (cartesian axes, Ry/au):

     atom    1 type  1   force =     0.00000000    0.00000000    0.00000000
     atom    2 type  1   force =     0.00000000    0.00000000    0.00000000
     atom    3 type  2   force =    -0.02376250    0.01560125    0.00000000
     atom    4 type  2   force =     0.02376250   -0.01560125    0.00000000
     atom    5 type  3   force =    -0.00068489    0.02969346    0.00000000
     atom    6 type  3   force =     0.00068489   -0.02969346    0.00000000
     atom    7 type  3   force =     0.02751821    0.01117760    0.00000000
     atom    8 type  3   force =    -0.02751821   -0.01117760    0.00000000
     atom    9 type  3   force =     0.02672194   -0.01754381   -0.04200421
     atom   10 type  3   force =    -0.02672194    0.01754381   -0.04200421
     atom   11 type  3   force =    -0.02672194    0.01754381    0.04200421
     atom   12 type  3   force =     0.02672194   -0.01754381    0.04200421

     Total force =     0.127631     Total SCF correction =     0.000238


     Computing stress (Cartesian axis) and pressure

          total   stress  (Ry/bohr**3)                   (kbar)     P=      -31.48
  -0.00018359   0.00003497   0.00000000          -27.01        5.14        0.00
   0.00003497  -0.00015329   0.00000000            5.14      -22.55        0.00
   0.00000000   0.00000000  -0.00030505            0.00        0.00      -44.87

     Energy error            =      4.3E-03
     Gradient error          =      4.2E-02
     Cell gradient error     =      3.1E-04


     number of scf cycles    =   2
     number of bfgs steps    =   1

     enthalpy old            =    -632.7072120159 Ry
     enthalpy new            =    -632.7114721350 Ry

     CASE: enthalpy_new < enthalpy_old

     new trust radius        =       0.0298430856 bohr
     new conv_thr            =       0.0000000100 Ry

     new unit-cell volume =    918.48905 a.u.^3 (   136.10603 Ang^3 )
     density =      2.93689 g/cm^3

CELL_PARAMETERS (angstrom)
   4.768483624   0.000858225  -0.000000000
  -1.895124447   4.375721974   0.000000000
   0.000000000   0.000000000   6.522491389

ATOMIC_POSITIONS (angstrom)
Mg            0.0000000000        0.0000000000        0.0000000000
Mg            0.0000000000        0.0000000000        3.2612456947
S             0.4383724462        2.8437094371        4.8918685421
S             2.4349867307        1.5328707611        1.6306228474
O             0.5119184853        1.3204488164        4.8918685421
O             2.3614406915        3.0561313817        1.6306228474
O             1.0080589820        0.9947172238        1.6306228474
O             1.8653001948        3.3818629744        4.8918685421
O            -0.2352149398        3.2859403065        6.1220434531
O             3.1085741166        1.0906398917        2.8608042809
O             3.1085741166        1.0906398917        0.4004414138
O            -0.2352149398        3.2859403065        3.6616936311



     Writing output data file ./out2/MgO4S.save/
     NEW-OLD atomic charge density approx. for the potential

     Check: negative core charge=   -0.000003
     extrapolated charge   79.43799, renormalised to   80.00000

     total cpu time spent up to now is      925.7 secs

     Self-consistent Calculation

     iteration #  1     ecut=    50.00 Ry     beta= 0.30
     Davidson diagonalization with overlap
     ethr =  1.00E-06,  avg # of iterations =  8.0

     total cpu time spent up to now is      988.8 secs

     total energy              =    -632.70644287 Ry
     estimated scf accuracy    <       0.01293603 Ry

     iteration #  2     ecut=    50.00 Ry     beta= 0.30
     Davidson diagonalization with overlap
     ethr =  1.62E-05,  avg # of iterations =  2.8

     total cpu time spent up to now is     1024.0 secs

     total energy              =    -632.71757714 Ry
     estimated scf accuracy    <       0.00322654 Ry

     iteration #  3     ecut=    50.00 Ry     beta= 0.30
     Davidson diagonalization with overlap
     ethr =  4.03E-06,  avg # of iterations =  2.6

     total cpu time spent up to now is     1052.8 secs

     total energy              =    -632.71707951 Ry
     estimated scf accuracy    <       0.00109180 Ry

     iteration #  4     ecut=    50.00 Ry     beta= 0.30
     Davidson diagonalization with overlap
     ethr =  1.36E-06,  avg # of iterations =  2.1

     total cpu time spent up to now is     1083.0 secs

     total energy              =    -632.71724630 Ry
     estimated scf accuracy    <       0.00006109 Ry

     iteration #  5     ecut=    50.00 Ry     beta= 0.30
     Davidson diagonalization with overlap
     ethr =  7.64E-08,  avg # of iterations =  2.0

     total cpu time spent up to now is     1110.4 secs

     total energy              =    -632.71724908 Ry
     estimated scf accuracy    <       0.00000804 Ry

     iteration #  6     ecut=    50.00 Ry     beta= 0.30
     Davidson diagonalization with overlap
     ethr =  1.01E-08,  avg # of iterations =  2.0

     total cpu time spent up to now is     1143.2 secs

     total energy              =    -632.71725079 Ry
     estimated scf accuracy    <       0.00000189 Ry

     iteration #  7     ecut=    50.00 Ry     beta= 0.30
     Davidson diagonalization with overlap
     ethr =  2.36E-09,  avg # of iterations =  2.0

     total cpu time spent up to now is     1168.2 secs

     total energy              =    -632.71725086 Ry
     estimated scf accuracy    <       0.00000038 Ry

     iteration #  8     ecut=    50.00 Ry     beta= 0.30
     Davidson diagonalization with overlap
     ethr =  4.77E-10,  avg # of iterations =  3.2

     total cpu time spent up to now is     1200.0 secs

     total energy              =    -632.71725097 Ry
     estimated scf accuracy    <       0.00000058 Ry

     iteration #  9     ecut=    50.00 Ry     beta= 0.30
     Davidson diagonalization with overlap
     ethr =  4.77E-10,  avg # of iterations =  2.0

     total cpu time spent up to now is     1228.3 secs

     total energy              =    -632.71725105 Ry
     estimated scf accuracy    <       0.00000002 Ry

     iteration # 10     ecut=    50.00 Ry     beta= 0.30
     Davidson diagonalization with overlap
     ethr =  2.90E-11,  avg # of iterations =  3.5

     total cpu time spent up to now is     1262.8 secs

     End of self-consistent calculation

          k = 0.0000 0.0000 0.0000 (  5241 PWs)   bands (ev):

   -68.7421 -68.7413 -35.5351 -35.5197 -35.5182 -35.5170 -35.4974 -35.4961
   -18.6164 -18.3916 -14.6561 -14.3090 -14.2164 -14.2126 -14.2023 -14.1512
    -5.5875  -4.8099  -2.1689  -2.1333  -1.9017  -1.8202  -1.8069  -1.7233
     0.4101   0.9052   1.0267   1.3856   1.4155   1.7154   1.9257   2.3509
     2.5319   2.7314   3.1716   3.2990   3.4047   3.9355   4.2110   4.2563
     9.7996  11.7563  11.9578  13.1202  13.3828  13.4627  13.4951  13.4961

          k = 0.0000 0.0000 0.1807 (  5279 PWs)   bands (ev):

   -68.7420 -68.7414 -35.5326 -35.5207 -35.5193 -35.5174 -35.4972 -35.4963
   -18.5854 -18.4266 -14.6051 -14.3610 -14.2149 -14.2111 -14.1949 -14.1588
    -5.4830  -4.9357  -2.1511  -2.1257  -2.0223  -1.8715  -1.7235  -1.6902
     0.6420   1.0281   1.0899   1.3357   1.3523   1.8651   1.9844   2.0594
     2.4335   2.5822   3.1754   3.3412   3.3626   3.8049   4.2486   4.2663
    10.1402  11.5091  12.2241  13.0509  13.3516  13.4606  13.4945  13.6326

          k = 0.0000 0.0000-0.3614 (  5288 PWs)   bands (ev):

   -68.7417 -68.7417 -35.5267 -35.5267 -35.5184 -35.5184 -35.4968 -35.4968
   -18.5082 -18.5077 -14.4833 -14.4829 -14.2121 -14.2118 -14.1770 -14.1767
    -5.2198  -5.2196  -2.1305  -2.1304  -2.0093  -2.0090  -1.6671  -1.6671
     1.0950   1.0951   1.2216   1.2218   1.4349   1.4350   2.2007   2.2009
     2.2187   2.2188   3.2295   3.2296   3.5603   3.5604   4.2739   4.2740
    10.8699  10.8701  12.8508  12.8511  13.2403  13.2404  13.5290  13.5293

          k =-0.0000 0.2693 0.0000 (  5287 PWs)   bands (ev):

   -68.7421 -68.7413 -35.5351 -35.5198 -35.5183 -35.5170 -35.4975 -35.4962
   -18.5562 -18.3920 -14.6036 -14.3581 -14.3536 -14.2361 -14.2271 -14.1696
    -5.1622  -4.5723  -2.2731  -2.1762  -1.9995  -1.9583  -1.8575  -1.4815
     0.5316   0.8978   0.9106   1.3677   1.6225   1.6588   1.8188   2.0955
     2.2824   2.5028   3.1810   3.3427   3.5769   3.8841   3.9264   4.0047
    10.7323  12.2139  12.4333  13.0719  13.1455  13.2698  13.3865  13.5822

          k =-0.0000 0.2693 0.1807 (  5289 PWs)   bands (ev):

   -68.7420 -68.7414 -35.5326 -35.5207 -35.5194 -35.5174 -35.4973 -35.4964
   -18.5330 -18.4169 -14.5764 -14.4207 -14.3118 -14.2427 -14.2185 -14.1773
    -5.0821  -4.6669  -2.2621  -2.1910  -2.0316  -1.9946  -1.7403  -1.5095
     0.6878   0.8924   1.0293   1.2670   1.4732   1.7179   1.8602   1.9784
     2.3217   2.4044   3.2325   3.3145   3.5618   3.8149   3.9323   4.0097
    11.0066  12.0641  12.6564  13.0337  13.2556  13.2782  13.3641  13.6365

          k =-0.0000 0.2693-0.3614 (  5294 PWs)   bands (ev):

   -68.7417 -68.7417 -35.5267 -35.5267 -35.5184 -35.5184 -35.4968 -35.4968
   -18.4760 -18.4755 -14.5057 -14.5054 -14.2710 -14.2708 -14.1972 -14.1969
    -4.8815  -4.8814  -2.2289  -2.2287  -2.0318  -2.0318  -1.5962  -1.5961
     0.9690   0.9690   1.1673   1.1674   1.3214   1.3215   2.1349   2.1350
     2.1928   2.1930   3.2886   3.2887   3.6410   3.6411   3.9814   3.9816
    11.5911  11.5913  13.0387  13.0388  13.2987  13.2988  13.4117  13.4119

          k = 0.0001-0.5386 0.0000 (  5272 PWs)   bands (ev):

   -68.7421 -68.7413 -35.5350 -35.5198 -35.5182 -35.5170 -35.4976 -35.4962
   -18.4716 -18.4147 -14.4873 -14.4797 -14.4785 -14.2853 -14.2375 -14.1770
    -4.5343  -4.4423  -2.4543  -2.2687  -2.0762  -1.9971  -1.6138  -1.6129
     0.7335   0.7799   1.0870   1.1142   1.3186   1.5278   1.9125   2.1006
     2.1539   2.3276   3.0392   3.5298   3.5679   3.7905   3.8032   3.8531
    11.9276  12.2942  12.7159  13.0926  13.2007  13.3181  13.3362  13.5588

          k = 0.0001-0.5386 0.1807 (  5298 PWs)   bands (ev):

   -68.7420 -68.7414 -35.5326 -35.5207 -35.5194 -35.5175 -35.4974 -35.4964
   -18.4630 -18.4227 -14.5417 -14.5081 -14.3958 -14.2860 -14.2296 -14.1853
    -4.5187  -4.4532  -2.4264  -2.2981  -2.0625  -2.0196  -1.5871  -1.5735
     0.6431   0.6993   1.1554   1.1632   1.3487   1.5377   1.9306   1.9321
     2.2354   2.2692   3.1486   3.5151   3.5637   3.7596   3.7814   3.8232
    12.1541  12.3866  12.8625  13.1105  13.1971  13.2498  13.3978  13.6224

          k = 0.0001-0.5386-0.3614 (  5296 PWs)   bands (ev):

   -68.7417 -68.7417 -35.5267 -35.5267 -35.5184 -35.5184 -35.4969 -35.4969
   -18.4427 -18.4423 -14.5467 -14.5465 -14.3206 -14.3205 -14.2068 -14.2065
    -4.4836  -4.4835  -2.3620  -2.3617  -2.0449  -2.0449  -1.5493  -1.5491
     0.6263   0.6264   1.1412   1.1413   1.4528   1.4530   2.0724   2.0726
     2.0924   2.0924   3.3628   3.3629   3.6562   3.6564   3.7829   3.7831
    12.4618  12.4620  13.0659  13.0660  13.1617  13.1618  13.5954  13.5956

          k = 0.2471 0.1070 0.0000 (  5287 PWs)   bands (ev):

   -68.7421 -68.7413 -35.5351 -35.5198 -35.5183 -35.5170 -35.4975 -35.4962
   -18.5562 -18.3920 -14.6036 -14.3581 -14.3536 -14.2361 -14.2271 -14.1696
    -5.1622  -4.5723  -2.2731  -2.1762  -1.9995  -1.9583  -1.8575  -1.4815
     0.5316   0.8978   0.9106   1.3677   1.6225   1.6588   1.8188   2.0955
     2.2824   2.5028   3.1810   3.3427   3.5769   3.8841   3.9264   4.0047
    10.7323  12.2139  12.4333  13.0719  13.1455  13.2698  13.3865  13.5822

          k = 0.2471 0.1070 0.1807 (  5289 PWs)   bands (ev):

   -68.7420 -68.7414 -35.5326 -35.5207 -35.5194 -35.5174 -35.4973 -35.4964
   -18.5330 -18.4169 -14.5764 -14.4207 -14.3118 -14.2427 -14.2185 -14.1773
    -5.0821  -4.6669  -2.2621  -2.1910  -2.0316  -1.9946  -1.7403  -1.5095
     0.6878   0.8924   1.0293   1.2670   1.4732   1.7179   1.8602   1.9784
     2.3217   2.4044   3.2325   3.3145   3.5618   3.8149   3.9323   4.0097
    11.0066  12.0641  12.6564  13.0337  13.2556  13.2782  13.3641  13.6365

          k = 0.2471 0.1070-0.3614 (  5294 PWs)   bands (ev):

   -68.7417 -68.7417 -35.5267 -35.5267 -35.5184 -35.5184 -35.4968 -35.4968
   -18.4760 -18.4755 -14.5057 -14.5054 -14.2710 -14.2708 -14.1972 -14.1969
    -4.8815  -4.8814  -2.2289  -2.2287  -2.0318  -2.0318  -1.5962  -1.5961
     0.9690   0.9690   1.1673   1.1674   1.3214   1.3215   2.1349   2.1350
     2.1928   2.1930   3.2886   3.2887   3.6410   3.6411   3.9814   3.9816
    11.5911  11.5913  13.0387  13.0388  13.2987  13.2988  13.4117  13.4119

          k = 0.2471 0.3763 0.0000 (  5315 PWs)   bands (ev):

   -68.7421 -68.7413 -35.5350 -35.5199 -35.5183 -35.5170 -35.4976 -35.4962
   -18.4783 -18.4080 -14.4994 -14.4725 -14.4586 -14.2806 -14.2607 -14.1745
    -4.5657  -4.3759  -2.4827  -2.3059  -2.2246  -1.8167  -1.6474  -1.5905
     0.3826   0.9394   1.2102   1.3283   1.5309   1.5427   1.5712   2.0459
     2.2495   2.2946   3.3493   3.4543   3.5002   3.6293   3.7830   3.8033
    11.9431  12.6225  12.8459  12.9614  12.9666  13.1510  13.6689  13.7730

          k = 0.2471 0.3763 0.1807 (  5315 PWs)   bands (ev):

   -68.7420 -68.7414 -35.5326 -35.5207 -35.5195 -35.5175 -35.4974 -35.4964
   -18.4678 -18.4180 -14.5159 -14.5097 -14.4083 -14.2934 -14.2415 -14.1788
    -4.5348  -4.4012  -2.4612  -2.3477  -2.1537  -1.8809  -1.6213  -1.5806
     0.5261   0.9578   1.0897   1.2247   1.2689   1.5051   1.9172   2.0409
     2.2309   2.2497   3.3580   3.4999   3.5445   3.5899   3.7286   3.7923
    12.1230  12.5569  12.9688  13.0672  13.1023  13.2097  13.6090  13.6995

          k = 0.2471 0.3763-0.3614 (  5312 PWs)   bands (ev):

   -68.7417 -68.7417 -35.5266 -35.5266 -35.5185 -35.5185 -35.4969 -35.4969
   -18.4429 -18.4425 -14.5288 -14.5286 -14.3455 -14.3453 -14.2004 -14.2002
    -4.4652  -4.4651  -2.4084  -2.4081  -2.0197  -2.0196  -1.5829  -1.5828
     0.8185   0.8186   1.0553   1.0554   1.3056   1.3057   2.0981   2.0983
     2.1882   2.1882   3.4164   3.4165   3.6328   3.6330   3.7009   3.7010
    12.4122  12.4123  13.1661  13.1664  13.1960  13.1960  13.6245  13.6247

          k = 0.2472-0.4316 0.0000 (  5324 PWs)   bands (ev):

   -68.7421 -68.7413 -35.5350 -35.5199 -35.5183 -35.5170 -35.4977 -35.4963
   -18.4677 -18.3976 -14.5686 -14.4840 -14.3808 -14.3466 -14.2126 -14.1908
    -4.7318  -4.3886  -2.4452  -2.3699  -2.0297  -1.7948  -1.7517  -1.3637
     0.3971   0.7179   1.1554   1.2020   1.2452   1.6187   1.8049   2.0711
     2.1520   2.4826   3.3023   3.5887   3.6631   3.7432   3.7969   4.0746
    11.9859  12.0180  12.3823  12.7834  12.8946  13.2754  13.3997  13.6040

          k = 0.2472-0.4316 0.1807 (  5297 PWs)   bands (ev):

   -68.7420 -68.7414 -35.5326 -35.5207 -35.5194 -35.5174 -35.4975 -35.4965
   -18.4573 -18.4077 -14.5551 -14.4755 -14.4113 -14.3562 -14.2007 -14.1868
    -4.6787  -4.4355  -2.3908  -2.3308  -2.0382  -1.8786  -1.6769  -1.4100
     0.4785   0.7310   0.9028   1.1794   1.3366   1.3898   1.9495   2.1286
     2.2259   2.3852   3.4042   3.6180   3.6624   3.7278   3.8111   4.0094
    12.0926  12.1471  12.4056  12.8584  12.9816  13.2736  13.3548  13.5162

          k = 0.2472-0.4316-0.3614 (  5292 PWs)   bands (ev):

   -68.7417 -68.7417 -35.5266 -35.5266 -35.5184 -35.5184 -35.4970 -35.4970
   -18.4326 -18.4321 -14.5127 -14.5124 -14.3947 -14.3944 -14.1869 -14.1867
    -4.5541  -4.5540  -2.3073  -2.3072  -2.0022  -2.0021  -1.5385  -1.5383
     0.6445   0.6446   0.9232   0.9232   1.3172   1.3173   2.1386   2.1386
     2.2641   2.2643   3.5741   3.5741   3.6885   3.6885   3.8822   3.8823
    12.2553  12.2555  12.5976  12.5977  13.1401  13.1403  13.5191  13.5194

          k = 0.2472-0.1623 0.0000 (  5295 PWs)   bands (ev):

   -68.7421 -68.7413 -35.5351 -35.5198 -35.5183 -35.5170 -35.4976 -35.4962
   -18.5462 -18.3815 -14.6298 -14.3360 -14.3232 -14.3139 -14.2242 -14.1581
    -5.2483  -4.6061  -2.3127  -2.3088  -1.8847  -1.7217  -1.7053  -1.6074
     0.5242   0.5782   0.8916   1.4154   1.5006   1.8016   1.9108   2.0733
     2.1365   2.6642   3.3623   3.4161   3.6080   3.9775   4.0733   4.1328
    10.7410  11.8652  12.1823  12.4265  12.9607  13.2125  13.5174  13.5900

          k = 0.2472-0.1623 0.1807 (  5273 PWs)   bands (ev):

   -68.7420 -68.7414 -35.5326 -35.5207 -35.5194 -35.5174 -35.4974 -35.4964
   -18.5230 -18.4066 -14.5918 -14.3939 -14.3213 -14.2962 -14.2146 -14.1679
    -5.1600  -4.7079  -2.3295  -2.2141  -1.8506  -1.7823  -1.6857  -1.6557
     0.6197   0.6451   1.0189   1.2826   1.3053   1.5755   1.9838   2.1018
     2.3128   2.5250   3.4434   3.4883   3.5750   3.9484   4.0620   4.1020
    10.9266  11.7072  12.2944  12.6700  12.9397  13.2777  13.4886  13.5659

          k = 0.2472-0.1623-0.3614 (  5294 PWs)   bands (ev):

   -68.7417 -68.7417 -35.5267 -35.5267 -35.5184 -35.5184 -35.4969 -35.4969
   -18.4659 -18.4655 -14.4977 -14.4974 -14.3043 -14.3041 -14.1915 -14.1912
    -4.9405  -4.9403  -2.2425  -2.2425  -1.7602  -1.7599  -1.7454  -1.7454
     0.8868   0.8869   0.9417   0.9418   1.2831   1.2831   2.2538   2.2539
     2.2603   2.2604   3.5077   3.5078   3.7445   3.7446   4.0785   4.0787
    11.3335  11.3337  12.6136  12.6137  13.2381  13.2383  13.4005  13.4007

          k =-0.4942-0.2141 0.0000 (  5272 PWs)   bands (ev):

   -68.7421 -68.7413 -35.5350 -35.5198 -35.5182 -35.5170 -35.4976 -35.4962
   -18.4716 -18.4147 -14.4873 -14.4797 -14.4785 -14.2853 -14.2375 -14.1770
    -4.5343  -4.4423  -2.4543  -2.2687  -2.0762  -1.9971  -1.6138  -1.6129
     0.7335   0.7799   1.0870   1.1142   1.3186   1.5278   1.9125   2.1006
     2.1539   2.3276   3.0392   3.5298   3.5679   3.7905   3.8032   3.8531
    11.9276  12.2942  12.7159  13.0926  13.2007  13.3181  13.3362  13.5588

          k =-0.4942-0.2141 0.1807 (  5298 PWs)   bands (ev):

   -68.7420 -68.7414 -35.5326 -35.5207 -35.5194 -35.5175 -35.4974 -35.4964
   -18.4630 -18.4227 -14.5417 -14.5081 -14.3958 -14.2860 -14.2296 -14.1853
    -4.5187  -4.4532  -2.4264  -2.2981  -2.0625  -2.0196  -1.5871  -1.5735
     0.6431   0.6993   1.1554   1.1632   1.3487   1.5377   1.9306   1.9321
     2.2354   2.2692   3.1486   3.5151   3.5637   3.7596   3.7814   3.8232
    12.1541  12.3866  12.8625  13.1105  13.1971  13.2498  13.3978  13.6224

          k =-0.4942-0.2141-0.3614 (  5296 PWs)   bands (ev):

   -68.7417 -68.7417 -35.5267 -35.5267 -35.5184 -35.5184 -35.4969 -35.4969
   -18.4427 -18.4423 -14.5467 -14.5465 -14.3206 -14.3205 -14.2068 -14.2065
    -4.4836  -4.4835  -2.3620  -2.3617  -2.0449  -2.0449  -1.5493  -1.5491
     0.6263   0.6264   1.1412   1.1413   1.4528   1.4530   2.0724   2.0726
     2.0924   2.0924   3.3628   3.3629   3.6562   3.6564   3.7829   3.7831
    12.4618  12.4620  13.0659  13.0660  13.1617  13.1618  13.5954  13.5956

          k =-0.4943 0.0552 0.0000 (  5324 PWs)   bands (ev):

   -68.7421 -68.7413 -35.5350 -35.5199 -35.5183 -35.5170 -35.4977 -35.4963
   -18.4677 -18.3976 -14.5686 -14.4840 -14.3808 -14.3466 -14.2126 -14.1908
    -4.7318  -4.3886  -2.4452  -2.3699  -2.0297  -1.7948  -1.7517  -1.3637
     0.3971   0.7179   1.1554   1.2020   1.2452   1.6187   1.8049   2.0711
     2.1520   2.4826   3.3023   3.5887   3.6631   3.7432   3.7969   4.0746
    11.9859  12.0180  12.3823  12.7834  12.8946  13.2754  13.3997  13.6040

          k =-0.4943 0.0552 0.1807 (  5297 PWs)   bands (ev):

   -68.7420 -68.7414 -35.5326 -35.5207 -35.5194 -35.5174 -35.4975 -35.4965
   -18.4573 -18.4077 -14.5551 -14.4755 -14.4113 -14.3562 -14.2007 -14.1868
    -4.6787  -4.4355  -2.3908  -2.3308  -2.0382  -1.8786  -1.6769  -1.4100
     0.4785   0.7310   0.9028   1.1794   1.3366   1.3898   1.9495   2.1286
     2.2259   2.3852   3.4042   3.6180   3.6624   3.7278   3.8111   4.0094
    12.0926  12.1471  12.4056  12.8584  12.9816  13.2736  13.3548  13.5162

          k =-0.4943 0.0552-0.3614 (  5292 PWs)   bands (ev):

   -68.7417 -68.7417 -35.5266 -35.5266 -35.5184 -35.5184 -35.4970 -35.4970
   -18.4326 -18.4321 -14.5127 -14.5124 -14.3947 -14.3944 -14.1869 -14.1867
    -4.5541  -4.5540  -2.3073  -2.3072  -2.0022  -2.0021  -1.5385  -1.5383
     0.6445   0.6446   0.9232   0.9232   1.3172   1.3173   2.1386   2.1386
     2.2641   2.2643   3.5741   3.5741   3.6885   3.6885   3.8822   3.8823
    12.2553  12.2555  12.5976  12.5977  13.1401  13.1403  13.5191  13.5194

          k =-0.4941-0.7527 0.0000 (  5328 PWs)   bands (ev):

   -68.7421 -68.7413 -35.5350 -35.5198 -35.5183 -35.5170 -35.4977 -35.4964
   -18.4568 -18.3875 -14.6032 -14.4583 -14.4110 -14.3374 -14.2445 -14.1663
    -4.8316  -4.4409  -2.6350  -2.4597  -1.6854  -1.6482  -1.5303  -1.3946
     0.2668   0.4072   1.1626   1.2016   1.4003   1.5395   1.6528   1.9235
     2.2233   2.5606   3.5183   3.7575   3.7626   3.8216   3.8602   4.2927
    11.3601  11.7826  12.0629  12.6310  13.0574  13.0670  13.4089  13.4879

          k =-0.4941-0.7527 0.1807 (  5294 PWs)   bands (ev):

   -68.7420 -68.7414 -35.5326 -35.5207 -35.5194 -35.5174 -35.4975 -35.4966
   -18.4466 -18.3976 -14.5833 -14.4514 -14.4339 -14.3444 -14.2332 -14.1779
    -4.7706  -4.4934  -2.5457  -2.4067  -1.7441  -1.7003  -1.5107  -1.4148
     0.3799   0.3969   0.8090   1.0229   1.3539   1.5629   1.9379   2.0213
     2.2646   2.4377   3.6619   3.7570   3.7662   3.8322   3.8762   4.2101
    11.5686  11.8460  12.0185  12.6450  13.1245  13.2320  13.3430  13.3809

          k =-0.4941-0.7527-0.3614 (  5256 PWs)   bands (ev):

   -68.7417 -68.7417 -35.5266 -35.5266 -35.5184 -35.5184 -35.4970 -35.4970
   -18.4222 -18.4218 -14.5258 -14.5257 -14.3824 -14.3823 -14.2058 -14.2056
    -4.6280  -4.6278  -2.3913  -2.3913  -1.7916  -1.7915  -1.4632  -1.4630
     0.4819   0.4821   0.6748   0.6749   1.4278   1.4279   2.2170   2.2171
     2.2228   2.2229   3.7630   3.7631   3.8267   3.8269   4.0009   4.0010
    11.8916  11.8917  12.1927  12.1928  13.2712  13.2714  13.4579  13.4581

     the Fermi energy is     8.7348 ev

!    total energy              =    -632.71725107 Ry
     estimated scf accuracy    <          4.7E-09 Ry
     smearing contrib. (-TS)   =      -0.00000000 Ry
     internal energy E=F+TS    =    -632.71725107 Ry

     The total energy is F=E-TS. E is the sum of the following terms:
     one-electron contribution =    -316.74304402 Ry
     hartree contribution      =     191.27021269 Ry
     xc contribution           =    -111.49705008 Ry
     ewald contribution        =    -319.65032785 Ry
     one-center paw contrib.   =     -76.09704181 Ry

     convergence has been achieved in  10 iterations

     Forces acting on atoms (cartesian axes, Ry/au):

     atom    1 type  1   force =     0.00000000    0.00000000    0.00000000
     atom    2 type  1   force =     0.00000000    0.00000000    0.00000000
     atom    3 type  2   force =     0.01347190   -0.00884468   -0.00000000
     atom    4 type  2   force =    -0.01347190    0.00884468   -0.00000000
     atom    5 type  3   force =    -0.00184331    0.01419014    0.00000000
     atom    6 type  3   force =     0.00184331   -0.01419014    0.00000000
     atom    7 type  3   force =     0.01375323    0.00395055    0.00000000
     atom    8 type  3   force =    -0.01375323   -0.00395055    0.00000000
     atom    9 type  3   force =     0.00152621   -0.00100200   -0.00336118
     atom   10 type  3   force =    -0.00152621    0.00100200   -0.00336118
     atom   11 type  3   force =    -0.00152621    0.00100200    0.00336118
     atom   12 type  3   force =     0.00152621   -0.00100200    0.00336118

     Total force =     0.037376     Total SCF correction =     0.000078


     Computing stress (Cartesian axis) and pressure

          total   stress  (Ry/bohr**3)                   (kbar)     P=        3.24
   0.00000845  -0.00003578   0.00000000            1.24       -5.26        0.00
  -0.00003578  -0.00002256   0.00000000           -5.26       -3.32        0.00
   0.00000000   0.00000000   0.00008027            0.00        0.00       11.81

     Energy error            =      5.8E-03
     Gradient error          =      1.4E-02
     Cell gradient error     =      8.0E-05


     number of scf cycles    =   3
     number of bfgs steps    =   2

     enthalpy old            =    -632.7114721350 Ry
     enthalpy new            =    -632.7172510702 Ry

     CASE: enthalpy_new < enthalpy_old

     new trust radius        =       0.0172127578 bohr
     new conv_thr            =       0.0000000100 Ry

     new unit-cell volume =    919.39397 a.u.^3 (   136.24013 Ang^3 )
     density =      2.93400 g/cm^3

CELL_PARAMETERS (angstrom)
   4.768570804  -0.003410519  -0.000000000
  -1.899075948   4.374104629   0.000000000
   0.000000000   0.000000000   6.533750161

ATOMIC_POSITIONS (angstrom)
Mg            0.0000000000        0.0000000000        0.0000000000
Mg            0.0000000000        0.0000000000        3.2668750805
S             0.4426171843        2.8367110899        4.9003126207
S             2.4268776719        1.5339830201        1.6334375402
O             0.5096731354        1.3280309128        4.9003126207
O             2.3598217208        3.0426631972        1.6334375402
O             1.0159088110        0.9956715563        1.6334375402
O             1.8535860451        3.3750225537        4.9003126207
O            -0.2363481777        3.2824727182        6.1292572838
O             3.1058430339        1.0882213918        2.8623887371
O             3.1058430339        1.0882213918        0.4044863434
O            -0.2363481777        3.2824727182        3.6713679577



     Writing output data file ./out2/MgO4S.save/
     NEW-OLD atomic charge density approx. for the potential

     Check: negative core charge=   -0.000003
     extrapolated charge   80.07815, renormalised to   80.00000

     total cpu time spent up to now is     1299.7 secs

     Self-consistent Calculation

     iteration #  1     ecut=    50.00 Ry     beta= 0.30
     Davidson diagonalization with overlap
     ethr =  1.00E-06,  avg # of iterations =  6.9

     total cpu time spent up to now is     1358.7 secs

     total energy              =    -632.71756326 Ry
     estimated scf accuracy    <       0.00074121 Ry

     iteration #  2     ecut=    50.00 Ry     beta= 0.30
     Davidson diagonalization with overlap
     ethr =  9.27E-07,  avg # of iterations =  2.0

     total cpu time spent up to now is     1389.9 secs

     total energy              =    -632.71767173 Ry
     estimated scf accuracy    <       0.00031440 Ry

     iteration #  3     ecut=    50.00 Ry     beta= 0.30
     Davidson diagonalization with overlap
     ethr =  3.93E-07,  avg # of iterations =  1.2

     total cpu time spent up to now is     1412.9 secs

     total energy              =    -632.71764721 Ry
     estimated scf accuracy    <       0.00008595 Ry

     iteration #  4     ecut=    50.00 Ry     beta= 0.30
     Davidson diagonalization with overlap
     ethr =  1.07E-07,  avg # of iterations =  2.0

     total cpu time spent up to now is     1441.6 secs

     total energy              =    -632.71766040 Ry
     estimated scf accuracy    <       0.00000798 Ry

     iteration #  5     ecut=    50.00 Ry     beta= 0.30
     Davidson diagonalization with overlap
     ethr =  9.97E-09,  avg # of iterations =  2.0

     total cpu time spent up to now is     1471.8 secs

     total energy              =    -632.71766199 Ry
     estimated scf accuracy    <       0.00000091 Ry

     iteration #  6     ecut=    50.00 Ry     beta= 0.30
     Davidson diagonalization with overlap
     ethr =  1.13E-09,  avg # of iterations =  1.6

     total cpu time spent up to now is     1495.8 secs

     total energy              =    -632.71766194 Ry
     estimated scf accuracy    <       0.00000033 Ry

     iteration #  7     ecut=    50.00 Ry     beta= 0.30
     Davidson diagonalization with overlap
     ethr =  4.10E-10,  avg # of iterations =  2.3

     total cpu time spent up to now is     1525.1 secs

[...]

   -69.0766 -69.0760 -35.8643 -35.8569 -35.8547 -35.8504 -35.8270 -35.8258
   -18.8489 -18.6483 -14.8135 -14.4806 -14.4773 -14.4528 -14.4512 -14.4368
    -5.7416  -4.9861  -2.3276  -2.3230  -2.1399  -2.0134  -2.0070  -1.9407
     0.2163   0.7514   0.8112   1.1537   1.1941   1.5120   1.7287   2.0824
     2.2506   2.4891   3.0186   3.1057   3.2278   3.7243   3.9899   4.0631
     9.5288  11.6213  11.8405  12.9725  13.2038  13.2130  13.2766  13.3393

          k = 0.0000 0.0000 0.1780 (  5570 PWs)   bands (ev):

   -69.0765 -69.0761 -35.8623 -35.8566 -35.8550 -35.8524 -35.8268 -35.8260
   -18.8211 -18.6793 -14.7654 -14.5338 -14.4714 -14.4499 -14.4474 -14.4427
    -5.6404  -5.1087  -2.3448  -2.2852  -2.2361  -2.0632  -1.9374  -1.9106
     0.4414   0.8591   0.8722   1.1059   1.1289   1.6682   1.7651   1.8174
     2.1643   2.3510   3.0200   3.1657   3.1687   3.5920   4.0353   4.0699
     9.8737  11.3378  12.0890  12.8639  13.0831  13.3044  13.3740  13.4274

          k = 0.0000 0.0000-0.3559 (  5588 PWs)   bands (ev):

   -69.0763 -69.0763 -35.8574 -35.8574 -35.8558 -35.8558 -35.8264 -35.8264
   -18.7520 -18.7516 -14.6503 -14.6499 -14.4572 -14.4570 -14.4476 -14.4473
    -5.3851  -5.3849  -2.3297  -2.3297  -2.1834  -2.1831  -1.8880  -1.8880
     0.8815   0.8816   1.0037   1.0039   1.2198   1.2199   1.9609   1.9611
     2.0108   2.0109   3.0662   3.0663   3.3535   3.3535   4.0701   4.0702
    10.6361  10.6363  12.6783  12.6786  12.9835  12.9835  13.4044  13.4047

          k = 0.0010 0.2690 0.0000 (  5586 PWs)   bands (ev):

   -69.0766 -69.0760 -35.8643 -35.8570 -35.8547 -35.8504 -35.8271 -35.8259
   -18.7927 -18.6470 -14.7630 -14.6103 -14.5276 -14.5122 -14.4653 -14.4247
    -5.3230  -4.7473  -2.4602  -2.3632  -2.2296  -2.1360  -2.0726  -1.6883
     0.3339   0.7060   0.7274   1.1588   1.3892   1.4387   1.6154   1.8499
     2.0206   2.2413   2.9968   3.1829   3.3796   3.6886   3.7352   3.7951
    10.4476  12.0689  12.3157  12.9031  12.9596  13.1068  13.2441  13.3148

          k = 0.0010 0.2690 0.1780 (  5601 PWs)   bands (ev):

   -69.0765 -69.0761 -35.8622 -35.8567 -35.8551 -35.8524 -35.8269 -35.8261
   -18.7720 -18.6690 -14.7403 -14.6237 -14.5433 -14.5038 -14.4613 -14.4303
    -5.2455  -4.8405  -2.4524  -2.3818  -2.2351  -2.1937  -1.9521  -1.7191
     0.4883   0.7013   0.8349   1.0601   1.2397   1.4878   1.6530   1.7520
     2.0696   2.1521   3.0468   3.1529   3.3688   3.6148   3.7411   3.8053
    10.7268  11.8866  12.5211  12.8476  13.0142  13.1442  13.2243  13.4446

          k = 0.0010 0.2690-0.3559 (  5594 PWs)   bands (ev):

   -69.0763 -69.0763 -35.8573 -35.8573 -35.8559 -35.8559 -35.8265 -35.8265
   -18.7214 -18.7210 -14.6823 -14.6821 -14.5235 -14.5234 -14.4456 -14.4453
    -5.0507  -5.0506  -2.4228  -2.4226  -2.2272  -2.2272  -1.8099  -1.8098
     0.7759   0.7759   0.9405   0.9405   1.1152   1.1153   1.9175   1.9177
     1.9473   1.9474   3.1129   3.1130   3.4463   3.4464   3.7837   3.7838
    11.3468  11.3470  12.8412  12.8412  13.1351  13.1353  13.2605  13.2608

          k =-0.0020-0.5380 0.0000 (  5610 PWs)   bands (ev):

   -69.0766 -69.0760 -35.8643 -35.8570 -35.8548 -35.8504 -35.8271 -35.8260
   -18.7134 -18.6669 -14.7373 -14.6456 -14.6415 -14.5656 -14.4764 -14.4249
    -4.6931  -4.6209  -2.6460  -2.4660  -2.2992  -2.2101  -1.8152  -1.8022
     0.5364   0.5705   0.8854   0.9104   1.1330   1.3322   1.6668   1.8351
     1.9069   2.0709   2.8566   3.3439   3.4045   3.5784   3.5917   3.6815
    11.6769  12.0485  12.6093  12.9094  13.0201  13.0890  13.2140  13.4229

          k =-0.0020-0.5380 0.1780 (  5608 PWs)   bands (ev):

   -69.0765 -69.0761 -35.8622 -35.8567 -35.8551 -35.8524 -35.8269 -35.8261
   -18.7063 -18.6735 -14.7524 -14.6910 -14.6013 -14.5414 -14.4726 -14.4334
    -4.6819  -4.6305  -2.6201  -2.4973  -2.2786  -2.2277  -1.7824  -1.7820
     0.4629   0.5001   0.9404   0.9433   1.1530   1.3288   1.6994   1.7012
     1.9835   2.0164   2.9634   3.3468   3.3745   3.5528   3.5779   3.6487
    11.9044  12.1323  12.7394  12.9326  12.9632  13.0828  13.2802  13.4785

          k =-0.0020-0.5380-0.3559 (  5628 PWs)   bands (ev):

   -69.0763 -69.0763 -35.8573 -35.8573 -35.8559 -35.8559 -35.8265 -35.8265
   -18.6899 -18.6894 -14.7426 -14.7425 -14.5495 -14.5494 -14.4547 -14.4543
    -4.6555  -4.6553  -2.5598  -2.5595  -2.2524  -2.2523  -1.7571  -1.7569
     0.4430   0.4431   0.9203   0.9205   1.2421   1.2423   1.8300   1.8301
     1.8680   1.8681   3.1804   3.1805   3.4600   3.4603   3.5967   3.5969
    12.2095  12.2096  12.8711  12.8711  13.0114  13.0116  13.4548  13.4551

          k = 0.2464 0.1079 0.0000 (  5586 PWs)   bands (ev):

   -69.0766 -69.0760 -35.8643 -35.8570 -35.8547 -35.8504 -35.8271 -35.8259
   -18.7927 -18.6470 -14.7630 -14.6099 -14.5276 -14.5122 -14.4653 -14.4250
    -5.3230  -4.7474  -2.4602  -2.3632  -2.2296  -2.1360  -2.0726  -1.6883
     0.3339   0.7060   0.7274   1.1589   1.3891   1.4387   1.6154   1.8498
     2.0207   2.2414   2.9968   3.1829   3.3796   3.6885   3.7352   3.7951
    10.4477  12.0690  12.3157  12.9031  12.9595  13.1067  13.2442  13.3148

          k = 0.2464 0.1079 0.1780 (  5601 PWs)   bands (ev):

   -69.0765 -69.0761 -35.8622 -35.8567 -35.8551 -35.8524 -35.8269 -35.8261
   -18.7720 -18.6690 -14.7402 -14.6235 -14.5432 -14.5036 -14.4614 -14.4306
    -5.2456  -4.8405  -2.4524  -2.3818  -2.2351  -2.1937  -1.9521  -1.7190
     0.4883   0.7013   0.8349   1.0602   1.2397   1.4878   1.6529   1.7520
     2.0695   2.1522   3.0468   3.1529   3.3689   3.6148   3.7411   3.8053
    10.7269  11.8866  12.5211  12.8476  13.0142  13.1440  13.2244  13.4445

          k = 0.2464 0.1079-0.3559 (  5594 PWs)   bands (ev):

   -69.0763 -69.0763 -35.8573 -35.8573 -35.8559 -35.8559 -35.8265 -35.8265
   -18.7214 -18.7210 -14.6822 -14.6820 -14.5233 -14.5231 -14.4459 -14.4456
    -5.0507  -5.0506  -2.4228  -2.4226  -2.2272  -2.2272  -1.8099  -1.8098
     0.7759   0.7759   0.9405   0.9406   1.1152   1.1153   1.9175   1.9177
     1.9473   1.9474   3.1129   3.1130   3.4463   3.4464   3.7836   3.7838
    11.3468  11.3470  12.8412  12.8413  13.1351  13.1353  13.2605  13.2607

          k = 0.2474 0.3769 0.0000 (  5601 PWs)   bands (ev):

   -69.0766 -69.0760 -35.8643 -35.8570 -35.8548 -35.8504 -35.8271 -35.8260
   -18.7194 -18.6609 -14.7252 -14.6621 -14.6249 -14.5638 -14.4930 -14.4232
    -4.7299  -4.5511  -2.6770  -2.4998  -2.4334  -2.0470  -1.8370  -1.7865
     0.1964   0.7401   1.0358   1.0594   1.3357   1.3389   1.3721   1.7791
     1.9834   2.0415   3.1452   3.2758   3.3154   3.4594   3.5737   3.6284
    11.6718  12.5031  12.6069  12.7953  12.8712  12.9746  13.5323  13.5412

          k = 0.2474 0.3769 0.1780 (  5596 PWs)   bands (ev):

   -69.0765 -69.0761 -35.8622 -35.8567 -35.8551 -35.8524 -35.8269 -35.8261
   -18.7106 -18.6692 -14.7282 -14.6933 -14.6107 -14.5506 -14.4833 -14.4269
    -4.7023  -4.5765  -2.6563  -2.5457  -2.3579  -2.1028  -1.8160  -1.7809
     0.3344   0.7555   0.8611   1.0330   1.0935   1.2659   1.7124   1.7830
     1.9819   1.9931   3.1643   3.3185   3.3755   3.3998   3.5325   3.6019
    11.8568  12.3770  12.7776  12.9307  12.9704  13.0491  13.3919  13.5516

          k = 0.2474 0.3769-0.3559 (  5596 PWs)   bands (ev):

   -69.0763 -69.0763 -35.8573 -35.8573 -35.8559 -35.8559 -35.8265 -35.8265
   -18.6900 -18.6895 -14.7236 -14.7236 -14.5761 -14.5761 -14.4473 -14.4471
    -4.6383  -4.6382  -2.6055  -2.6053  -2.2284  -2.2283  -1.7851  -1.7849
     0.6176   0.6176   0.8439   0.8441   1.1076   1.1078   1.8556   1.8558
     1.9492   1.9492   3.2440   3.2442   3.4431   3.4433   3.5038   3.5040
    12.1796  12.1798  13.0040  13.0040  13.0529  13.0532  13.4509  13.4511

          k = 0.2445-0.4302 0.0000 (  5605 PWs)   bands (ev):

   -69.0766 -69.0760 -35.8643 -35.8570 -35.8548 -35.8504 -35.8272 -35.8260
   -18.7139 -18.6486 -14.7309 -14.7233 -14.5833 -14.5479 -14.4889 -14.4484
    -4.9056  -4.5590  -2.6551  -2.5683  -2.2315  -1.9816  -1.9779  -1.5773
     0.2246   0.5463   0.9661   0.9816   1.0346   1.4022   1.5757   1.8108
     1.8936   2.2426   3.1206   3.3932   3.4814   3.5545   3.5950   3.8758
    11.7495  11.7535  12.2402  12.6362  12.8096  13.1552  13.2543  13.3514

          k = 0.2445-0.4302 0.1780 (  5597 PWs)   bands (ev):

   -69.0765 -69.0761 -35.8622 -35.8567 -35.8551 -35.8524 -35.8270 -35.8262
   -18.7042 -18.6581 -14.7245 -14.7024 -14.5978 -14.5938 -14.4616 -14.4441
    -4.8536  -4.6083  -2.6032  -2.5370  -2.2385  -2.0843  -1.8806  -1.6227
     0.3041   0.5528   0.7302   0.9789   1.0996   1.1728   1.7185   1.8905
     1.9642   2.1536   3.2165   3.4216   3.4749   3.5385   3.6130   3.8116
    11.8601  11.8810  12.2601  12.6549  12.8847  13.1136  13.2298  13.3445

          k = 0.2445-0.4302-0.3559 (  5618 PWs)   bands (ev):

   -69.0763 -69.0763 -35.8573 -35.8573 -35.8559 -35.8559 -35.8266 -35.8266
   -18.6813 -18.6809 -14.6947 -14.6946 -14.6252 -14.6251 -14.4433 -14.4431
    -4.7297  -4.7295  -2.5233  -2.5232  -2.2021  -2.2020  -1.7453  -1.7451
     0.4730   0.4730   0.7324   0.7324   1.0963   1.0964   1.8965   1.8966
     2.0301   2.0303   3.3816   3.3817   3.4959   3.4960   3.6858   3.6859
    12.0293  12.0294  12.3721  12.3721  13.0345  13.0347  13.3753  13.3756

          k = 0.2454-0.1611 0.0000 (  5593 PWs)   bands (ev):

   -69.0766 -69.0760 -35.8643 -35.8570 -35.8547 -35.8504 -35.8271 -35.8260
   -18.7855 -18.6368 -14.7892 -14.5641 -14.5469 -14.4974 -14.4933 -14.4427
    -5.4132  -4.7837  -2.5321  -2.4918  -2.0585  -1.9328  -1.9286  -1.8147
     0.3528   0.4104   0.6895   1.1959   1.3097   1.5495   1.6598   1.8368
     1.8879   2.4261   3.1815   3.2421   3.4258   3.7713   3.8721   3.9203
    10.4848  11.7319  11.9018  12.2946  12.7884  13.1248  13.3204  13.3971

          k = 0.2454-0.1611 0.1780 (  5595 PWs)   bands (ev):

   -69.0765 -69.0761 -35.8623 -35.8566 -35.8551 -35.8524 -35.8269 -35.8261
   -18.7645 -18.6594 -14.7541 -14.5865 -14.5490 -14.5043 -14.4895 -14.4508
    -5.3272  -4.8842  -2.5303  -2.4247  -2.0284  -1.9913  -1.9071  -1.8569
     0.4494   0.4653   0.8230   1.0769   1.0834   1.3480   1.7540   1.8697
     2.0524   2.2960   3.2660   3.2971   3.3929   3.7354   3.8614   3.8979
    10.6817  11.5429  12.0317  12.5229  12.7035  13.1897  13.3688  13.3768

          k = 0.2454-0.1611-0.3559 (  5608 PWs)   bands (ev):

   -69.0763 -69.0763 -35.8573 -35.8573 -35.8559 -35.8559 -35.8265 -35.8265
   -18.7130 -18.7126 -14.6696 -14.6693 -14.5278 -14.5276 -14.4703 -14.4701
    -5.1128  -5.1126  -2.4507  -2.4507  -1.9606  -1.9606  -1.9488  -1.9485
     0.7049   0.7050   0.7448   0.7449   1.0669   1.0670   2.0132   2.0133
     2.0315   2.0316   3.3258   3.3259   3.5379   3.5380   3.8777   3.8778
    11.1250  11.1252  12.3518  12.3519  13.0712  13.0714  13.3045  13.3047

          k =-0.4929-0.2157 0.0000 (  5610 PWs)   bands (ev):

   -69.0766 -69.0760 -35.8643 -35.8570 -35.8548 -35.8504 -35.8271 -35.8260
   -18.7134 -18.6670 -14.7369 -14.6456 -14.6415 -14.5655 -14.4765 -14.4253
    -4.6931  -4.6210  -2.6459  -2.4660  -2.2992  -2.2102  -1.8151  -1.8022
     0.5365   0.5703   0.8853   0.9105   1.1330   1.3323   1.6666   1.8350
     1.9070   2.0711   2.8566   3.3437   3.4045   3.5785   3.5917   3.6816
    11.6769  12.0486  12.6093  12.9093  13.0201  13.0889  13.2138  13.4228

          k =-0.4929-0.2157 0.1780 (  5608 PWs)   bands (ev):

   -69.0765 -69.0761 -35.8622 -35.8567 -35.8551 -35.8524 -35.8269 -35.8261
   -18.7063 -18.6735 -14.7522 -14.6909 -14.6012 -14.5413 -14.4729 -14.4338
    -4.6820  -4.6305  -2.6200  -2.4973  -2.2786  -2.2277  -1.7824  -1.7821
     0.4629   0.4999   0.9404   0.9434   1.1529   1.3287   1.6996   1.7010
     1.9835   2.0165   2.9634   3.3468   3.3744   3.5528   3.5780   3.6487
    11.9045  12.1324  12.7394  12.9326  12.9633  13.0828  13.2800  13.4784

          k =-0.4929-0.2157-0.3559 (  5628 PWs)   bands (ev):

   -69.0763 -69.0763 -35.8573 -35.8573 -35.8559 -35.8559 -35.8265 -35.8265
   -18.6899 -18.6894 -14.7424 -14.7424 -14.5493 -14.5492 -14.4550 -14.4547
    -4.6555  -4.6554  -2.5597  -2.5594  -2.2524  -2.2523  -1.7571  -1.7569
     0.4429   0.4430   0.9204   0.9206   1.2420   1.2422   1.8300   1.8301
     1.8680   1.8681   3.1804   3.1805   3.4600   3.4602   3.5968   3.5969
    12.2096  12.2098  12.8711  12.8711  13.0114  13.0116  13.4547  13.4550

          k =-0.4919 0.0533 0.0000 (  5605 PWs)   bands (ev):

   -69.0766 -69.0760 -35.8643 -35.8570 -35.8548 -35.8504 -35.8272 -35.8260
   -18.7139 -18.6486 -14.7309 -14.7231 -14.5832 -14.5479 -14.4891 -14.4485
    -4.9056  -4.5590  -2.6551  -2.5683  -2.2315  -1.9816  -1.9779  -1.5772
     0.2246   0.5463   0.9661   0.9816   1.0346   1.4022   1.5756   1.8109
     1.8937   2.2426   3.1206   3.3932   3.4814   3.5546   3.5950   3.8759
    11.7496  11.7536  12.2402  12.6362  12.8094  13.1551  13.2542  13.3514

          k =-0.4919 0.0533 0.1780 (  5597 PWs)   bands (ev):

   -69.0765 -69.0761 -35.8622 -35.8567 -35.8551 -35.8524 -35.8270 -35.8262
   -18.7042 -18.6581 -14.7245 -14.7022 -14.5978 -14.5938 -14.4618 -14.4442
    -4.8536  -4.6084  -2.6032  -2.5370  -2.2385  -2.0843  -1.8806  -1.6226
     0.3040   0.5529   0.7302   0.9790   1.0996   1.1727   1.7183   1.8906
     1.9642   2.1536   3.2165   3.4216   3.4749   3.5386   3.6130   3.8116
    11.8601  11.8810  12.2602  12.6549  12.8845  13.1137  13.2297  13.3445

          k =-0.4919 0.0533-0.3559 (  5618 PWs)   bands (ev):

   -69.0763 -69.0763 -35.8573 -35.8573 -35.8559 -35.8559 -35.8266 -35.8266
   -18.6813 -18.6809 -14.6945 -14.6944 -14.6253 -14.6252 -14.4435 -14.4432
    -4.7297  -4.7296  -2.5233  -2.5232  -2.2021  -2.2020  -1.7453  -1.7451
     0.4729   0.4729   0.7325   0.7325   1.0963   1.0964   1.8964   1.8964
     2.0303   2.0304   3.3816   3.3816   3.4959   3.4960   3.6858   3.6859
    12.0294  12.0295  12.3721  12.3721  13.0344  13.0346  13.3753  13.3755

          k =-0.4949-0.7537 0.0000 (  5582 PWs)   bands (ev):

   -69.0766 -69.0760 -35.8643 -35.8570 -35.8548 -35.8504 -35.8272 -35.8261
   -18.7073 -18.6374 -14.7646 -14.6789 -14.6380 -14.5159 -14.5059 -14.4500
    -5.0135  -4.6107  -2.8414  -2.6417  -1.9147  -1.8751  -1.7373  -1.6046
     0.1084   0.2291   0.9602   1.0333   1.1935   1.3682   1.3869   1.6520
     1.9571   2.3301   3.3381   3.5552   3.5857   3.6154   3.6619   4.0803
    11.0832  11.6609  11.8664  12.4625  12.9297  13.0182  13.2298  13.2874

          k =-0.4949-0.7537 0.1780 (  5592 PWs)   bands (ev):

   -69.0765 -69.0761 -35.8622 -35.8567 -35.8551 -35.8524 -35.8271 -35.8262
   -18.6972 -18.6477 -14.7528 -14.6619 -14.6480 -14.5271 -14.5064 -14.4598
    -4.9522  -4.6668  -2.7572  -2.6003  -1.9680  -1.9234  -1.7183  -1.6246
     0.2155   0.2263   0.6432   0.8429   1.1588   1.3060   1.7217   1.7737
     1.9968   2.2128   3.4714   3.5589   3.5848   3.6259   3.6764   4.0001
    11.2808  11.7220  11.8243  12.4178  13.0733  13.0929  13.1487  13.2713

          k =-0.4949-0.7537-0.3559 (  5624 PWs)   bands (ev):

   -69.0763 -69.0763 -35.8573 -35.8573 -35.8559 -35.8559 -35.8267 -35.8267
   -18.6727 -18.6723 -14.7128 -14.7128 -14.5834 -14.5833 -14.4834 -14.4831
    -4.8071  -4.8069  -2.6059  -2.6059  -2.0070  -2.0069  -1.6720  -1.6717
     0.3251   0.3252   0.4979   0.4980   1.2099   1.2100   1.9703   1.9704
     1.9900   1.9902   3.5733   3.5735   3.6231   3.6233   3.7977   3.7978
    11.6614  11.6614  11.9853  11.9853  13.1907  13.1910  13.3124  13.3126

     the Fermi energy is     8.5064 ev

!    total energy              =    -632.71915940 Ry
     estimated scf accuracy    <          2.2E-11 Ry
     smearing contrib. (-TS)   =      -0.00000000 Ry
     internal energy E=F+TS    =    -632.71915940 Ry

     The total energy is F=E-TS. E is the sum of the following terms:
     one-electron contribution =    -323.89271240 Ry
     hartree contribution      =     194.14638750 Ry
     xc contribution           =    -111.48961921 Ry
     ewald contribution        =    -315.38859196 Ry
     one-center paw contrib.   =     -76.09462332 Ry

     convergence has been achieved in  14 iterations

     Forces acting on atoms (cartesian axes, Ry/au):

     atom    1 type  1   force =     0.00000000    0.00000000    0.00000000
     atom    2 type  1   force =     0.00000000    0.00000000    0.00000000
     atom    3 type  2   force =    -0.00005798    0.00009886    0.00000000
     atom    4 type  2   force =     0.00005798   -0.00009886    0.00000000
     atom    5 type  3   force =     0.00004713    0.00000612    0.00000000
     atom    6 type  3   force =    -0.00004713   -0.00000612    0.00000000
     atom    7 type  3   force =     0.00003606    0.00006556    0.00000000
     atom    8 type  3   force =    -0.00003606   -0.00006556    0.00000000
     atom    9 type  3   force =    -0.00004177    0.00002613   -0.00000876
     atom   10 type  3   force =     0.00004177   -0.00002613   -0.00000876
     atom   11 type  3   force =     0.00004177   -0.00002613    0.00000876
     atom   12 type  3   force =    -0.00004177    0.00002613    0.00000876

     Total force =     0.000228     Total SCF correction =     0.000016


     Computing stress (Cartesian axis) and pressure

          total   stress  (Ry/bohr**3)                   (kbar)     P=        0.37
   0.00000142   0.00000060   0.00000000            0.21        0.09        0.00
   0.00000060   0.00000233   0.00000000            0.09        0.34        0.00
   0.00000000   0.00000000   0.00000387            0.00        0.00        0.57


     Writing output data file ./out2/MgO4S.save/

     init_run     :     24.59s CPU     31.06s WALL (       2 calls)
     electrons    :   4792.48s CPU   6068.37s WALL (      19 calls)
     update_pot   :    118.68s CPU    149.07s WALL (      17 calls)
     forces       :    143.33s CPU    181.66s WALL (      19 calls)
     stress       :    242.74s CPU    307.00s WALL (      19 calls)

     Called by init_run:
     wfcinit      :     11.31s CPU     13.76s WALL (       2 calls)
     potinit      :      4.45s CPU      6.18s WALL (       2 calls)
     hinit0       :      7.47s CPU      9.52s WALL (       2 calls)

     Called by electrons:
     c_bands      :   4194.32s CPU   5305.07s WALL (     197 calls)
     sum_band     :    484.47s CPU    614.24s WALL (     197 calls)
     v_of_rho     :     19.57s CPU     25.01s WALL (     211 calls)
     newd         :     60.46s CPU     82.37s WALL (     211 calls)
     PAW_pot      :     40.08s CPU     49.96s WALL (     228 calls)
     mix_rho      :      3.09s CPU      3.92s WALL (     197 calls)

     Called by c_bands:
     init_us_2    :     13.02s CPU     16.47s WALL (    6765 calls)
     cegterg      :   3726.35s CPU   4731.04s WALL (    2955 calls)

     Called by *egterg:
     cdiaghg      :    216.52s CPU    288.25s WALL (   10662 calls)
     h_psi        :   1810.37s CPU   2340.11s WALL (   11022 calls)
     s_psi        :    311.95s CPU    398.67s WALL (   11022 calls)
     g_psi        :      3.33s CPU      4.32s WALL (    8037 calls)

     Called by h_psi:
     h_psi:calbec :    460.42s CPU    574.31s WALL (   11022 calls)
     vloc_psi     :   1025.39s CPU   1338.04s WALL (   11022 calls)
     add_vuspsi   :    321.84s CPU    424.36s WALL (   11022 calls)

     General routines
     calbec       :    735.34s CPU    913.23s WALL (   15657 calls)
     fft          :     30.70s CPU     37.75s WALL (    3202 calls)
     ffts         :      1.07s CPU      1.41s WALL (     408 calls)
     fftw         :   1135.45s CPU   1477.50s WALL (  917288 calls)
     interpolate  :      1.50s CPU      1.97s WALL (     211 calls)

     Parallel routines
     fft_scatt_xy :     65.85s CPU     81.99s WALL (  920898 calls)
     fft_scatt_yz :    768.05s CPU   1011.45s WALL (  920898 calls)

     PWSCF        :      1h29m CPU      1h52m WALL


   This run was terminated on:  20:17:10   3Jul2026            

=------------------------------------------------------------------------------=
   JOB DONE.
=------------------------------------------------------------------------------=
