
     Program PWSCF v.6.7MaX starts on  3Jul2026 at 20:17:11 

     This program is part of the open-source Quantum ESPRESSO suite
     for quantum simulation of materials; please cite
         "P. Giannozzi et al., J. Phys.:Condens. Matter 21 395502 (2009);
         "P. Giannozzi et al., J. Phys.:Condens. Matter 29 465901 (2017);
          URL http://www.quantum-espresso.org", 
     in publications or presentations arising from this work. More details at
     http://www.quantum-espresso.org/quote

     Parallel version (MPI), running on     8 processors

     MPI processes distributed on     1 nodes
     K-points division:     npool     =       2
     R & G space division:  proc/nbgrp/npool/nimage =       4
     Waiting for input...
     Reading input from standard input
Warning: card &CELL ignored
Warning: card / ignored

     Current dimensions of program PWSCF are:
     Max number of different atomic species (ntypx) = 10
     Max number of k-points (npk) =  40000
     Max angular momentum in pseudopotentials (lmaxx) =  3
     file O.pbe-n-kjpaw_psl.0.1.UPF: wavefunction(s)  2P renormalized

     Subspace diagonalization in iterative solution of the eigenvalue problem:
     one sub-group per band group will be used
     scalapack distributed-memory algorithm (size of sub-group:  2*  2 procs)


     Parallelization info
     --------------------
     sticks:   dense  smooth     PW     G-vecs:    dense   smooth      PW
     Min         582     289     86                29980    10562    1748
     Max         583     290     88                29981    10563    1749
     Sum        2329    1159    347               119921    42249    6993



     bravais-lattice index     =            0
     lattice parameter (alat)  =       8.9079  a.u.
     unit-cell volume          =     887.4134 (a.u.)^3
     number of atoms/cell      =           12
     number of atomic types    =            3
     number of electrons       =        80.00
     number of Kohn-Sham states=           40
     kinetic-energy cutoff     =      50.0000  Ry
     charge density cutoff     =     400.0000  Ry
     scf convergence threshold =      1.0E-10
     mixing beta               =       0.3000
     number of iterations used =            8  plain     mixing
     Exchange-correlation= SLA  PW   PBX  PBC
                           (   1   4   3   4   0   0   0)

     celldm(1)=   8.907925  celldm(2)=   0.000000  celldm(3)=   0.000000
     celldm(4)=   0.000000  celldm(5)=   0.000000  celldm(6)=   0.000000

     crystal axes: (cart. coord. in units of alat)
               a(1) = (   1.000000   0.000400  -0.000000 )  
               a(2) = (  -0.397225   0.917721   0.000000 )  
               a(3) = (   0.000000   0.000000   1.367761 )  

     reciprocal axes: (cart. coord. in units 2 pi/alat)
               b(1) = (  0.999827  0.432764 -0.000000 )  
               b(2) = ( -0.000436  1.089467  0.000000 )  
               b(3) = (  0.000000  0.000000  0.731122 )  


     PseudoPot. # 1 for Mg read from file:
     /data/pseudopotentials/mg_pbe_v1.4.uspp.F.UPF
     MD5 check sum: 8ffbd8f729fef71095aac5bd8316fb1f
     Pseudo is Ultrasoft, Zval = 10.0
     Generated by new atomic code, or converted to UPF format
     Using radial grid of  821 points,  7 beta functions with: 
                l(1) =   0
                l(2) =   0
                l(3) =   0
                l(4) =   1
                l(5) =   1
                l(6) =   2
                l(7) =   2
     Q(r) pseudized with  8 coefficients,  rinner =    1.200   1.200   1.200
                                                       1.200   1.200

     PseudoPot. # 2 for S  read from file:
     /data/pseudopotentials/s_pbe_v1.4.uspp.F.UPF
     MD5 check sum: 88d86576ff6df21479756cfb9bdac1df
     Pseudo is Ultrasoft + core correction, Zval =  6.0
     Generated by new atomic code, or converted to UPF format
     Using radial grid of  907 points,  6 beta functions with: 
                l(1) =   0
                l(2) =   0
                l(3) =   1
                l(4) =   1
                l(5) =   2
                l(6) =   2
     Q(r) pseudized with  8 coefficients,  rinner =    1.300   1.300   1.300
                                                       1.300   1.300

     PseudoPot. # 3 for O  read from file:
     /data/pseudopotentials/O.pbe-n-kjpaw_psl.0.1.UPF
     MD5 check sum: 833c495a5d0f9b75bf046115549bffff
     Pseudo is Projector augmented-wave + core cor, Zval =  6.0
     Generated using &quot;atomic&quot; code by A. Dal Corso  v.6.3
     Shape of augmentation charge: BESSEL
     Using radial grid of 1095 points,  4 beta functions with: 
                l(1) =   0
                l(2) =   0
                l(3) =   1
                l(4) =   1
     Q(r) pseudized with 0 coefficients 


     atomic species   valence    mass     pseudopotential
        Mg            10.00    24.30500     Mg( 1.00)
        S              6.00    32.06000     S ( 1.00)
        O              6.00    15.99900     O ( 1.00)

     No symmetry found



   Cartesian axes

     site n.     atom                  positions (alat units)
         1           Mg  tau(   1) = (   0.0000000   0.0000000   0.0000000  )
         2           Mg  tau(   2) = (   0.0000000   0.0000000   0.6838805  )
         3           S   tau(   3) = (   0.0931540   0.5957724   1.0258208  )
         4           S   tau(   4) = (   0.5096209   0.3223490   0.3419403  )
         5           O   tau(   5) = (   0.1071000   0.2789756   1.0258208  )
         6           O   tau(   6) = (   0.4956749   0.6391458   0.3419403  )
         7           O   tau(   7) = (   0.2133953   0.2091894   0.3419403  )
         8           O   tau(   8) = (   0.3893795   0.7089320   1.0258208  )
         9           O   tau(   9) = (  -0.0489574   0.6890728   1.2822895  )
        10           O   tau(  10) = (   0.6517322   0.2290486   0.5984104  )
        11           O   tau(  11) = (   0.6517322   0.2290486   0.0854702  )
        12           O   tau(  12) = (  -0.0489574   0.6890728   0.7693521  )

     number of k points=    36
                       cart. coord. in units 2pi/alat
        k(    1) = (   0.0000000   0.0000000   0.0000000), wk =   0.0312500
        k(    2) = (   0.0000000   0.0000000   0.1827805), wk =   0.0625000
        k(    3) = (   0.0000000   0.0000000  -0.3655609), wk =   0.0312500
        k(    4) = (  -0.0001090   0.2723667   0.0000000), wk =   0.0625000
        k(    5) = (  -0.0001090   0.2723667   0.1827805), wk =   0.0625000
        k(    6) = (  -0.0001090   0.2723667  -0.3655609), wk =   0.0625000
        k(    7) = (  -0.0001090   0.2723667  -0.1827805), wk =   0.0625000
        k(    8) = (   0.0002179  -0.5447334   0.0000000), wk =   0.0312500
        k(    9) = (   0.0002179  -0.5447334   0.1827805), wk =   0.0625000
        k(   10) = (   0.0002179  -0.5447334  -0.3655609), wk =   0.0312500
        k(   11) = (   0.2499567   0.1081909   0.0000000), wk =   0.0625000
        k(   12) = (   0.2499567   0.1081909   0.1827805), wk =   0.0625000
        k(   13) = (   0.2499567   0.1081909  -0.3655609), wk =   0.0625000
        k(   14) = (   0.2499567   0.1081909  -0.1827805), wk =   0.0625000
        k(   15) = (   0.2498478   0.3805576   0.0000000), wk =   0.0625000
        k(   16) = (   0.2498478   0.3805576   0.1827805), wk =   0.0625000
        k(   17) = (   0.2498478   0.3805576  -0.3655609), wk =   0.0625000
        k(   18) = (   0.2498478   0.3805576  -0.1827805), wk =   0.0625000
        k(   19) = (   0.2501747  -0.4365425   0.0000000), wk =   0.0625000
        k(   20) = (   0.2501747  -0.4365425   0.1827805), wk =   0.0625000
        k(   21) = (   0.2501747  -0.4365425  -0.3655609), wk =   0.0625000
        k(   22) = (   0.2501747  -0.4365425  -0.1827805), wk =   0.0625000
        k(   23) = (   0.2500657  -0.1641758   0.0000000), wk =   0.0625000
        k(   24) = (   0.2500657  -0.1641758   0.1827805), wk =   0.0625000
        k(   25) = (   0.2500657  -0.1641758  -0.3655609), wk =   0.0625000
        k(   26) = (   0.2500657  -0.1641758  -0.1827805), wk =   0.0625000
        k(   27) = (  -0.4999135  -0.2163818   0.0000000), wk =   0.0312500
        k(   28) = (  -0.4999135  -0.2163818   0.1827805), wk =   0.0625000
        k(   29) = (  -0.4999135  -0.2163818  -0.3655609), wk =   0.0312500
        k(   30) = (  -0.5000224   0.0559849   0.0000000), wk =   0.0625000
        k(   31) = (  -0.5000224   0.0559849   0.1827805), wk =   0.0625000
        k(   32) = (  -0.5000224   0.0559849  -0.3655609), wk =   0.0625000
        k(   33) = (  -0.5000224   0.0559849  -0.1827805), wk =   0.0625000
        k(   34) = (  -0.4996955  -0.7611151   0.0000000), wk =   0.0312500
        k(   35) = (  -0.4996955  -0.7611151   0.1827805), wk =   0.0625000
        k(   36) = (  -0.4996955  -0.7611151  -0.3655609), wk =   0.0312500

     Dense  grid:   119921 G-vectors     FFT dimensions: (  60,  60,  80)

     Smooth grid:    42249 G-vectors     FFT dimensions: (  45,  45,  60)

     Estimated max dynamical RAM per process >      95.84 MB

     Estimated total dynamical RAM >     766.72 MB

     Check: negative core charge=   -0.000003

     Initial potential from superposition of free atoms

     starting charge   79.39946, renormalised to   80.00000
     Starting wfcs are   50 randomized atomic wfcs
     Checking if some PAW data can be deallocated... 

     total cpu time spent up to now is       13.3 secs

     Self-consistent Calculation

     iteration #  1     ecut=    50.00 Ry     beta= 0.30
     Davidson diagonalization with overlap
     ethr =  1.00E-02,  avg # of iterations =  2.0

     total cpu time spent up to now is       42.5 secs

     total energy              =    -632.24522242 Ry
     estimated scf accuracy    <       2.69448626 Ry

     iteration #  2     ecut=    50.00 Ry     beta= 0.30
     Davidson diagonalization with overlap
     ethr =  3.37E-03,  avg # of iterations =  2.0

     total cpu time spent up to now is       71.7 secs

     total energy              =    -632.64551769 Ry
     estimated scf accuracy    <       0.19167968 Ry

     iteration #  3     ecut=    50.00 Ry     beta= 0.30
     Davidson diagonalization with overlap
     ethr =  2.40E-04,  avg # of iterations =  3.0

     total cpu time spent up to now is      102.5 secs

     total energy              =    -632.69385058 Ry
     estimated scf accuracy    <       0.06125608 Ry

     iteration #  4     ecut=    50.00 Ry     beta= 0.30
     Davidson diagonalization with overlap
     ethr =  7.66E-05,  avg # of iterations =  4.0

     total cpu time spent up to now is      133.8 secs

     total energy              =    -632.70490920 Ry
     estimated scf accuracy    <       0.05823866 Ry

     iteration #  5     ecut=    50.00 Ry     beta= 0.30
     Davidson diagonalization with overlap
     ethr =  7.28E-05,  avg # of iterations =  2.0

     total cpu time spent up to now is      155.0 secs

     total energy              =    -632.69959929 Ry
     estimated scf accuracy    <       0.01409205 Ry

     iteration #  6     ecut=    50.00 Ry     beta= 0.30
     Davidson diagonalization with overlap
     ethr =  1.76E-05,  avg # of iterations =  3.0

     total cpu time spent up to now is      184.9 secs

     total energy              =    -632.70743871 Ry
     estimated scf accuracy    <       0.00564628 Ry

     iteration #  7     ecut=    50.00 Ry     beta= 0.30
     Davidson diagonalization with overlap
     ethr =  7.06E-06,  avg # of iterations =  1.0

     total cpu time spent up to now is      204.4 secs

     total energy              =    -632.70652202 Ry
     estimated scf accuracy    <       0.00225787 Ry

     iteration #  8     ecut=    50.00 Ry     beta= 0.30
     Davidson diagonalization with overlap
     ethr =  2.82E-06,  avg # of iterations =  3.0

     total cpu time spent up to now is      231.5 secs

     total energy              =    -632.70719821 Ry
     estimated scf accuracy    <       0.00002459 Ry

     iteration #  9     ecut=    50.00 Ry     beta= 0.30
     Davidson diagonalization with overlap
     ethr =  3.07E-08,  avg # of iterations =  3.5

     total cpu time spent up to now is      262.1 secs

     total energy              =    -632.70720651 Ry
     estimated scf accuracy    <       0.00002555 Ry

     iteration # 10     ecut=    50.00 Ry     beta= 0.30
     Davidson diagonalization with overlap
     ethr =  3.07E-08,  avg # of iterations =  2.1

     total cpu time spent up to now is      289.2 secs

     total energy              =    -632.70721168 Ry
     estimated scf accuracy    <       0.00000047 Ry

     iteration # 11     ecut=    50.00 Ry     beta= 0.30
     Davidson diagonalization with overlap
     ethr =  5.91E-10,  avg # of iterations =  5.4

     total cpu time spent up to now is      333.6 secs

     total energy              =    -632.70721268 Ry
     estimated scf accuracy    <       0.00000497 Ry

     iteration # 12     ecut=    50.00 Ry     beta= 0.30
     Davidson diagonalization with overlap
     ethr =  5.91E-10,  avg # of iterations =  2.0

     total cpu time spent up to now is      365.8 secs

     total energy              =    -632.70721128 Ry
     estimated scf accuracy    <       0.00000308 Ry

     iteration # 13     ecut=    50.00 Ry     beta= 0.30
     Davidson diagonalization with overlap
     ethr =  5.91E-10,  avg # of iterations =  3.0

     total cpu time spent up to now is      400.8 secs

     total energy              =    -632.70721199 Ry
     estimated scf accuracy    <          1.7E-09 Ry

     iteration # 14     ecut=    50.00 Ry     beta= 0.30
     Davidson diagonalization with overlap
     ethr =  2.16E-12,  avg # of iterations =  6.7

     total cpu time spent up to now is      450.2 secs

     total energy              =    -632.70721201 Ry
     estimated scf accuracy    <          8.6E-10 Ry

     iteration # 15     ecut=    50.00 Ry     beta= 0.30
     Davidson diagonalization with overlap
     ethr =  1.07E-12,  avg # of iterations =  4.8

     total cpu time spent up to now is      490.6 secs

     total energy              =    -632.70721200 Ry
     estimated scf accuracy    <       0.00000002 Ry

     iteration # 16     ecut=    50.00 Ry     beta= 0.30
     Davidson diagonalization with overlap
     ethr =  1.07E-12,  avg # of iterations =  4.9

     total cpu time spent up to now is      529.1 secs

     total energy              =    -632.70721201 Ry
     estimated scf accuracy    <          1.9E-10 Ry

     iteration # 17     ecut=    50.00 Ry     beta= 0.30
     Davidson diagonalization with overlap
     ethr =  2.32E-13,  avg # of iterations =  4.0

     total cpu time spent up to now is      561.1 secs

     total energy              =    -632.70721201 Ry
     estimated scf accuracy    <          5.7E-10 Ry

     iteration # 18     ecut=    50.00 Ry     beta= 0.30
     Davidson diagonalization with overlap
     ethr =  2.32E-13,  avg # of iterations =  3.0

     total cpu time spent up to now is      594.1 secs

     End of self-consistent calculation

          k = 0.0000 0.0000 0.0000 (  5241 PWs)   bands (ev):

   -68.2652 -68.2643 -35.0636 -35.0467 -35.0441 -35.0434 -35.0215 -35.0199
   -18.6397 -18.4073 -14.4421 -14.1318 -14.0797 -14.0733 -14.0676 -14.0654
    -5.2188  -4.3866  -1.9232  -1.8333  -1.6091  -1.5492  -1.5137  -1.4286
     0.6076   1.1245   1.2216   1.5666   1.5923   1.9452   2.1962   2.6281
     2.7900   2.9687   3.5544   3.6296   3.8094   4.3233   4.5556   4.6264

          k = 0.0000 0.0000 0.1828 (  5279 PWs)   bands (ev):

   -68.2651 -68.2644 -35.0608 -35.0470 -35.0462 -35.0439 -35.0213 -35.0201
   -18.6076 -18.4435 -14.3885 -14.1325 -14.1243 -14.0874 -14.0642 -14.0612
    -5.1077  -4.5223  -1.8795  -1.8602  -1.7344  -1.6171  -1.4142  -1.3875
     0.8422   1.2597   1.2862   1.5254   1.5373   2.0917   2.2512   2.3309
     2.6898   2.8200   3.5575   3.6926   3.7395   4.1696   4.6098   4.6375

          k = 0.0000 0.0000-0.3656 (  5288 PWs)   bands (ev):

   -68.2648 -68.2648 -35.0539 -35.0539 -35.0450 -35.0450 -35.0207 -35.0207
   -18.5275 -18.5275 -14.2603 -14.2603 -14.1059 -14.1059 -14.0620 -14.0620
    -4.8269  -4.8268  -1.8464  -1.8464  -1.7601  -1.7601  -1.3571  -1.3571
     1.2858   1.2859   1.4180   1.4180   1.7013   1.7013   2.4505   2.4505
     2.4545   2.4545   3.6165   3.6165   3.9015   3.9015   4.6442   4.6442

          k =-0.0001 0.2724 0.0000 (  5287 PWs)   bands (ev):

   -68.2652 -68.2643 -35.0636 -35.0467 -35.0441 -35.0434 -35.0216 -35.0200
   -18.5777 -18.4075 -14.3861 -14.2676 -14.1530 -14.1253 -14.0833 -14.0511
    -4.7637  -4.1239  -2.0085  -1.9044  -1.7203  -1.6896  -1.5760  -1.1920
     0.7285   1.0984   1.1035   1.5936   1.8496   1.8744   2.0674   2.3316
     2.5581   2.7450   3.5379   3.7242   3.9583   4.2280   4.3197   4.3590

          k =-0.0001 0.2724 0.1828 (  5289 PWs)   bands (ev):

   -68.2651 -68.2644 -35.0608 -35.0470 -35.0462 -35.0439 -35.0214 -35.0202
   -18.5536 -18.4333 -14.3648 -14.2680 -14.1689 -14.1276 -14.0810 -14.0556
    -4.6779  -4.2281  -1.9962  -1.9189  -1.7663  -1.7165  -1.4546  -1.2179
     0.8928   1.0914   1.2227   1.4896   1.6844   1.9721   2.0958   2.2156
     2.5851   2.6471   3.5946   3.6934   3.9352   4.1791   4.2957   4.3732

          k =-0.0001 0.2724-0.3656 (  5294 PWs)   bands (ev):

   -68.2648 -68.2648 -35.0539 -35.0539 -35.0451 -35.0451 -35.0208 -35.0208
   -18.4943 -18.4943 -14.3107 -14.3107 -14.1530 -14.1530 -14.0690 -14.0690
    -4.4619  -4.4618  -1.9590  -1.9590  -1.7631  -1.7631  -1.3037  -1.3037
     1.1763   1.1763   1.3695   1.3696   1.5510   1.5510   2.3769   2.3769
     2.4461   2.4461   3.6625   3.6625   4.0039   4.0039   4.3444   4.3445

          k =-0.0001 0.2724-0.1828 (  5289 PWs)   bands (ev):

   -68.2651 -68.2644 -35.0608 -35.0470 -35.0462 -35.0439 -35.0214 -35.0202
   -18.5536 -18.4333 -14.3648 -14.2680 -14.1689 -14.1276 -14.0810 -14.0556
    -4.6779  -4.2281  -1.9962  -1.9189  -1.7663  -1.7165  -1.4546  -1.2179
     0.8928   1.0914   1.2227   1.4896   1.6844   1.9721   2.0958   2.2156
     2.5851   2.6471   3.5946   3.6934   3.9352   4.1791   4.2957   4.3732

          k = 0.0002-0.5447 0.0000 (  5272 PWs)   bands (ev):

   -68.2652 -68.2643 -35.0636 -35.0468 -35.0441 -35.0435 -35.0217 -35.0200
   -18.4918 -18.4295 -14.4061 -14.2538 -14.2535 -14.2076 -14.0978 -14.0507
    -4.0736  -3.9728  -2.2132  -2.0157  -1.8043  -1.7316  -1.3374  -1.3364
     0.9446   0.9649   1.2952   1.3654   1.5593   1.7517   2.1485   2.3030
     2.4281   2.5614   3.3947   3.8652   3.9615   4.1544   4.1717   4.2462

          k = 0.0002-0.5447 0.1828 (  5298 PWs)   bands (ev):

   -68.2651 -68.2644 -35.0607 -35.0470 -35.0463 -35.0440 -35.0214 -35.0203
   -18.4824 -18.4383 -14.4124 -14.3210 -14.2176 -14.1666 -14.0942 -14.0590
    -4.0572  -3.9854  -2.1835  -2.0476  -1.7890  -1.7527  -1.3062  -1.2919
     0.8470   0.8931   1.3747   1.3809   1.5762   1.7828   2.1360   2.1813
     2.4973   2.5008   3.5104   3.8979   3.9073   4.1089   4.1625   4.2125

          k = 0.0002-0.5447-0.3656 (  5296 PWs)   bands (ev):

   -68.2648 -68.2648 -35.0539 -35.0539 -35.0451 -35.0451 -35.0209 -35.0209
   -18.4600 -18.4600 -14.3898 -14.3898 -14.1672 -14.1672 -14.0790 -14.0790
    -4.0194  -4.0194  -2.1152  -2.1152  -1.7734  -1.7733  -1.2633  -1.2633
     0.8269   0.8269   1.3467   1.3467   1.6830   1.6830   2.2894   2.2894
     2.3620   2.3620   3.7377   3.7377   4.0002   4.0002   4.1663   4.1663

          k = 0.2500 0.1082 0.0000 (  5287 PWs)   bands (ev):

   -68.2652 -68.2643 -35.0636 -35.0467 -35.0441 -35.0434 -35.0216 -35.0200
   -18.5777 -18.4075 -14.3861 -14.2676 -14.1530 -14.1253 -14.0833 -14.0511
    -4.7637  -4.1239  -2.0085  -1.9044  -1.7203  -1.6896  -1.5760  -1.1920
     0.7285   1.0984   1.1035   1.5936   1.8496   1.8744   2.0674   2.3316
     2.5581   2.7450   3.5379   3.7242   3.9583   4.2280   4.3197   4.3590

          k = 0.2500 0.1082 0.1828 (  5289 PWs)   bands (ev):

   -68.2651 -68.2644 -35.0608 -35.0470 -35.0462 -35.0439 -35.0214 -35.0202
   -18.5536 -18.4333 -14.3648 -14.2680 -14.1689 -14.1276 -14.0810 -14.0556
    -4.6779  -4.2281  -1.9962  -1.9189  -1.7663  -1.7165  -1.4546  -1.2179
     0.8928   1.0914   1.2227   1.4896   1.6844   1.9721   2.0958   2.2156
     2.5851   2.6471   3.5946   3.6934   3.9352   4.1791   4.2957   4.3732

          k = 0.2500 0.1082-0.3656 (  5294 PWs)   bands (ev):

   -68.2648 -68.2648 -35.0539 -35.0539 -35.0451 -35.0451 -35.0208 -35.0208
   -18.4943 -18.4943 -14.3107 -14.3107 -14.1530 -14.1530 -14.0690 -14.0690
    -4.4619  -4.4618  -1.9590  -1.9590  -1.7631  -1.7631  -1.3037  -1.3037
     1.1763   1.1763   1.3695   1.3696   1.5510   1.5510   2.3769   2.3769
     2.4461   2.4461   3.6625   3.6625   4.0039   4.0039   4.3444   4.3445

          k = 0.2500 0.1082-0.1828 (  5289 PWs)   bands (ev):

   -68.2651 -68.2644 -35.0608 -35.0470 -35.0462 -35.0439 -35.0214 -35.0202
   -18.5536 -18.4333 -14.3648 -14.2680 -14.1689 -14.1276 -14.0810 -14.0556
    -4.6779  -4.2281  -1.9962  -1.9189  -1.7663  -1.7165  -1.4546  -1.2179
     0.8928   1.0914   1.2227   1.4896   1.6844   1.9721   2.0958   2.2156
     2.5851   2.6471   3.5946   3.6934   3.9352   4.1791   4.2957   4.3732

          k = 0.2498 0.3806 0.0000 (  5315 PWs)   bands (ev):

   -68.2652 -68.2643 -35.0636 -35.0468 -35.0441 -35.0435 -35.0217 -35.0201
   -18.4986 -18.4227 -14.3921 -14.2762 -14.2310 -14.2057 -14.1214 -14.0443
    -4.1057  -3.8932  -2.2558  -2.0601  -1.9719  -1.5236  -1.3730  -1.3054
     0.5526   1.1213   1.4768   1.5290   1.7910   1.8096   1.8116   2.2364
     2.5089   2.5253   3.7158   3.7861   3.8713   4.0163   4.1323   4.1997

          k = 0.2498 0.3806 0.1828 (  5315 PWs)   bands (ev):

   -68.2651 -68.2644 -35.0607 -35.0470 -35.0463 -35.0439 -35.0215 -35.0203
   -18.4873 -18.4336 -14.3851 -14.3217 -14.2277 -14.1838 -14.1078 -14.0458
    -4.0716  -3.9223  -2.2325  -2.1083  -1.8909  -1.5928  -1.3439  -1.2955
     0.7069   1.1371   1.2899   1.4873   1.5271   1.7313   2.1899   2.2342
     2.4560   2.5140   3.7268   3.8419   3.9287   3.9570   4.0837   4.1765

          k = 0.2498 0.3806-0.3656 (  5312 PWs)   bands (ev):

   -68.2648 -68.2648 -35.0539 -35.0539 -35.0451 -35.0451 -35.0209 -35.0209
   -18.4602 -18.4602 -14.3649 -14.3649 -14.2062 -14.2062 -14.0655 -14.0655
    -3.9943  -3.9943  -2.1751  -2.1751  -1.7432  -1.7432  -1.2996  -1.2996
     1.0105   1.0105   1.2648   1.2648   1.5522   1.5522   2.3096   2.3096
     2.4576   2.4576   3.7927   3.7928   3.9808   3.9808   4.0772   4.0772

          k = 0.2498 0.3806-0.1828 (  5315 PWs)   bands (ev):

   -68.2651 -68.2644 -35.0607 -35.0470 -35.0463 -35.0439 -35.0215 -35.0203
   -18.4873 -18.4336 -14.3851 -14.3217 -14.2277 -14.1838 -14.1078 -14.0458
    -4.0716  -3.9223  -2.2325  -2.1083  -1.8909  -1.5928  -1.3439  -1.2955
     0.7069   1.1371   1.2899   1.4873   1.5271   1.7313   2.1899   2.2342
     2.4560   2.5140   3.7268   3.8419   3.9287   3.9570   4.0837   4.1765

          k = 0.2502-0.4365 0.0000 (  5324 PWs)   bands (ev):

   -68.2652 -68.2643 -35.0636 -35.0468 -35.0441 -35.0435 -35.0218 -35.0201
   -18.4852 -18.4150 -14.3819 -14.3472 -14.2173 -14.1504 -14.1303 -14.0832
    -4.2900  -3.9143  -2.2067  -2.1267  -1.7610  -1.5284  -1.4573  -1.0696
     0.5696   0.9523   1.3850   1.4429   1.4548   1.8718   2.0573   2.3184
     2.3691   2.7101   3.6601   3.9039   4.0448   4.1375   4.1456   4.4700

          k = 0.2502-0.4365 0.1828 (  5297 PWs)   bands (ev):

   -68.2651 -68.2644 -35.0607 -35.0470 -35.0463 -35.0439 -35.0215 -35.0204
   -18.4747 -18.4251 -14.3671 -14.3368 -14.2308 -14.2147 -14.0892 -14.0742
    -4.2330  -3.9671  -2.1466  -2.0803  -1.7703  -1.5984  -1.4008  -1.1184
     0.6602   0.9539   1.1376   1.3984   1.5483   1.6384   2.1968   2.3595
     2.4811   2.6144   3.7605   3.9404   4.0387   4.1091   4.1752   4.4002

          k = 0.2502-0.4365-0.3656 (  5292 PWs)   bands (ev):

   -68.2648 -68.2648 -35.0538 -35.0538 -35.0451 -35.0451 -35.0209 -35.0209
   -18.4498 -18.4497 -14.3338 -14.3338 -14.2544 -14.2544 -14.0694 -14.0694
    -4.0979  -4.0979  -2.0524  -2.0524  -1.7309  -1.7309  -1.2567  -1.2567
     0.8530   0.8530   1.1391   1.1391   1.5455   1.5455   2.3703   2.3703
     2.5181   2.5181   3.9270   3.9270   4.0510   4.0510   4.2622   4.2622

          k = 0.2502-0.4365-0.1828 (  5297 PWs)   bands (ev):

   -68.2651 -68.2644 -35.0607 -35.0470 -35.0463 -35.0439 -35.0215 -35.0204
   -18.4747 -18.4251 -14.3671 -14.3368 -14.2308 -14.2147 -14.0892 -14.0742
    -4.2330  -3.9671  -2.1466  -2.0803  -1.7703  -1.5984  -1.4008  -1.1184
     0.6602   0.9539   1.1376   1.3984   1.5483   1.6384   2.1968   2.3595
     2.4811   2.6144   3.7605   3.9404   4.0387   4.1091   4.1752   4.4002

          k = 0.2501-0.1642 0.0000 (  5295 PWs)   bands (ev):

   -68.2652 -68.2643 -35.0636 -35.0467 -35.0441 -35.0434 -35.0217 -35.0201
   -18.5665 -18.3982 -14.4128 -14.1889 -14.1734 -14.1556 -14.0891 -14.0866
    -4.8540  -4.1619  -2.0621  -2.0325  -1.6239  -1.4132  -1.4076  -1.3395
     0.6994   0.7752   1.1344   1.6646   1.7292   1.9960   2.1538   2.3018
     2.4199   2.9057   3.7069   3.7945   4.0104   4.3013   4.4272   4.5261

          k = 0.2501-0.1642 0.1828 (  5273 PWs)   bands (ev):

   -68.2651 -68.2644 -35.0607 -35.0470 -35.0462 -35.0439 -35.0215 -35.0203
   -18.5427 -18.4238 -14.3769 -14.2115 -14.1693 -14.1456 -14.1069 -14.0968
    -4.7601  -4.2736  -2.0711  -1.9317  -1.5896  -1.4915  -1.3898  -1.3793
     0.8257   0.8287   1.2637   1.4907   1.5429   1.8096   2.1986   2.3541
     2.5791   2.7649   3.8238   3.8320   3.9720   4.2819   4.4200   4.4807

          k = 0.2501-0.1642-0.3656 (  5294 PWs)   bands (ev):

   -68.2648 -68.2648 -35.0539 -35.0539 -35.0451 -35.0451 -35.0209 -35.0209
   -18.4842 -18.4841 -14.2916 -14.2915 -14.1411 -14.1411 -14.1213 -14.1213
    -4.5253  -4.5253  -1.9686  -1.9686  -1.4975  -1.4975  -1.4481  -1.4481
     1.1216   1.1216   1.1346   1.1346   1.5080   1.5080   2.4835   2.4835
     2.5232   2.5232   3.8944   3.8944   4.0915   4.0915   4.4386   4.4386

          k = 0.2501-0.1642-0.1828 (  5273 PWs)   bands (ev):

   -68.2651 -68.2644 -35.0607 -35.0470 -35.0462 -35.0439 -35.0215 -35.0203
   -18.5427 -18.4238 -14.3769 -14.2115 -14.1693 -14.1456 -14.1069 -14.0968
    -4.7601  -4.2736  -2.0711  -1.9317  -1.5896  -1.4915  -1.3898  -1.3793
     0.8257   0.8287   1.2637   1.4907   1.5429   1.8096   2.1986   2.3541
     2.5791   2.7649   3.8238   3.8320   3.9720   4.2819   4.4200   4.4807

          k =-0.4999-0.2164 0.0000 (  5272 PWs)   bands (ev):

   -68.2652 -68.2643 -35.0636 -35.0468 -35.0441 -35.0435 -35.0217 -35.0200
   -18.4918 -18.4295 -14.4061 -14.2538 -14.2535 -14.2076 -14.0978 -14.0507
    -4.0736  -3.9728  -2.2132  -2.0157  -1.8043  -1.7316  -1.3374  -1.3364
     0.9446   0.9650   1.2952   1.3654   1.5593   1.7517   2.1485   2.3030
     2.4281   2.5614   3.3947   3.8652   3.9615   4.1544   4.1717   4.2462

          k =-0.4999-0.2164 0.1828 (  5298 PWs)   bands (ev):

   -68.2651 -68.2644 -35.0607 -35.0470 -35.0463 -35.0440 -35.0214 -35.0203
   -18.4824 -18.4383 -14.4124 -14.3210 -14.2176 -14.1666 -14.0942 -14.0590
    -4.0572  -3.9854  -2.1835  -2.0476  -1.7890  -1.7527  -1.3062  -1.2919
     0.8470   0.8931   1.3747   1.3809   1.5762   1.7828   2.1360   2.1813
     2.4973   2.5008   3.5104   3.8979   3.9073   4.1089   4.1625   4.2125

          k =-0.4999-0.2164-0.3656 (  5296 PWs)   bands (ev):

   -68.2648 -68.2648 -35.0539 -35.0539 -35.0451 -35.0451 -35.0209 -35.0209
   -18.4600 -18.4600 -14.3898 -14.3898 -14.1672 -14.1672 -14.0790 -14.0790
    -4.0194  -4.0194  -2.1152  -2.1152  -1.7734  -1.7733  -1.2633  -1.2633
     0.8269   0.8269   1.3467   1.3467   1.6830   1.6830   2.2894   2.2894
     2.3620   2.3620   3.7377   3.7377   4.0002   4.0002   4.1663   4.1663

          k =-0.5000 0.0560 0.0000 (  5324 PWs)   bands (ev):

   -68.2652 -68.2643 -35.0636 -35.0468 -35.0441 -35.0435 -35.0218 -35.0201
   -18.4852 -18.4150 -14.3819 -14.3472 -14.2173 -14.1504 -14.1303 -14.0832
    -4.2900  -3.9143  -2.2067  -2.1267  -1.7610  -1.5284  -1.4573  -1.0696
     0.5696   0.9523   1.3850   1.4429   1.4548   1.8718   2.0573   2.3184
     2.3691   2.7101   3.6601   3.9039   4.0448   4.1375   4.1456   4.4700

          k =-0.5000 0.0560 0.1828 (  5297 PWs)   bands (ev):

   -68.2651 -68.2644 -35.0607 -35.0470 -35.0463 -35.0439 -35.0215 -35.0204
   -18.4747 -18.4251 -14.3671 -14.3368 -14.2308 -14.2147 -14.0892 -14.0742
    -4.2330  -3.9671  -2.1466  -2.0803  -1.7703  -1.5984  -1.4008  -1.1184
     0.6602   0.9539   1.1376   1.3984   1.5483   1.6384   2.1968   2.3595
     2.4811   2.6144   3.7605   3.9404   4.0387   4.1091   4.1752   4.4002

          k =-0.5000 0.0560-0.3656 (  5292 PWs)   bands (ev):

   -68.2648 -68.2648 -35.0538 -35.0538 -35.0451 -35.0451 -35.0209 -35.0209
   -18.4498 -18.4497 -14.3338 -14.3338 -14.2544 -14.2544 -14.0694 -14.0694
    -4.0979  -4.0979  -2.0524  -2.0524  -1.7309  -1.7309  -1.2567  -1.2567
     0.8530   0.8530   1.1391   1.1391   1.5455   1.5455   2.3703   2.3703
     2.5181   2.5181   3.9270   3.9270   4.0510   4.0510   4.2622   4.2622

          k =-0.5000 0.0560-0.1828 (  5297 PWs)   bands (ev):

   -68.2651 -68.2644 -35.0607 -35.0470 -35.0463 -35.0439 -35.0215 -35.0204
   -18.4747 -18.4251 -14.3671 -14.3368 -14.2308 -14.2147 -14.0892 -14.0742
    -4.2330  -3.9671  -2.1466  -2.0803  -1.7703  -1.5984  -1.4008  -1.1184
     0.6602   0.9539   1.1376   1.3984   1.5483   1.6384   2.1968   2.3595
     2.4811   2.6144   3.7605   3.9404   4.0387   4.1091   4.1752   4.4002

          k =-0.4997-0.7611 0.0000 (  5328 PWs)   bands (ev):

   -68.2652 -68.2643 -35.0636 -35.0467 -35.0441 -35.0435 -35.0219 -35.0202
   -18.4711 -18.4081 -14.3831 -14.3146 -14.2754 -14.1774 -14.1048 -14.0950
    -4.3941  -3.9846  -2.4088  -2.2036  -1.3849  -1.3487  -1.2479  -1.1137
     0.4345   0.6355   1.4080   1.4211   1.5973   1.8462   1.8998   2.1220
     2.4568   2.8074   3.8733   4.1276   4.1434   4.1588   4.1932   4.6934

          k =-0.4997-0.7611 0.1828 (  5294 PWs)   bands (ev):

   -68.2651 -68.2644 -35.0607 -35.0470 -35.0463 -35.0439 -35.0216 -35.0204
   -18.4617 -18.4172 -14.3830 -14.3012 -14.2698 -14.1655 -14.1272 -14.1072
    -4.3312  -4.0407  -2.3075  -2.1425  -1.4542  -1.4059  -1.2284  -1.1336
     0.5518   0.6227   1.0426   1.2270   1.5905   1.8057   2.2081   2.2337
     2.5085   2.6805   4.0127   4.1412   4.1446   4.1608   4.2167   4.6064

          k =-0.4997-0.7611-0.3656 (  5256 PWs)   bands (ev):

   -68.2648 -68.2648 -35.0538 -35.0538 -35.0451 -35.0451 -35.0210 -35.0210
   -18.4393 -18.4393 -14.3521 -14.3520 -14.1903 -14.1903 -14.1365 -14.1365
    -4.1826  -4.1826  -2.1273  -2.1273  -1.5103  -1.5102  -1.1812  -1.1811
     0.7077   0.7077   0.8592   0.8592   1.6674   1.6674   2.4471   2.4471
     2.4817   2.4817   4.1437   4.1437   4.1544   4.1544   4.3838   4.3838

     highest occupied level (ev):     4.6934

!    total energy              =    -632.70721201 Ry
     estimated scf accuracy    <          9.2E-12 Ry

     The total energy is the sum of the following terms:
     one-electron contribution =    -312.13433105 Ry
     hartree contribution      =     190.02573769 Ry
     xc contribution           =    -111.84647968 Ry
     ewald contribution        =    -322.67572676 Ry
     one-center paw contrib.   =     -76.07641222 Ry

     convergence has been achieved in  18 iterations

     Forces acting on atoms (cartesian axes, Ry/au):

     atom    1 type  1   force =     0.00000028   -0.00000021   -0.00000058
     atom    2 type  1   force =     0.00000028   -0.00000019    0.00000058
     atom    3 type  2   force =     0.00444118   -0.00291603    0.00000000
     atom    4 type  2   force =    -0.00443278    0.00291053   -0.00000000
     atom    5 type  3   force =     0.00304066   -0.03353584   -0.00000000
     atom    6 type  3   force =    -0.00304029    0.03353521    0.00000000
     atom    7 type  3   force =    -0.03197971   -0.01054380   -0.00000000
     atom    8 type  3   force =     0.03198054    0.01054369   -0.00000000
     atom    9 type  3   force =    -0.01707157    0.01120801    0.03652452
     atom   10 type  3   force =     0.01706650   -0.01120469    0.03651254
     atom   11 type  3   force =     0.01706649   -0.01120468   -0.03651253
     atom   12 type  3   force =    -0.01707157    0.01120801   -0.03652452

     Total force =     0.107676     Total SCF correction =     0.000010

     Writing output data file ./out2/MgO4S.save/

     init_run     :      9.20s CPU     12.23s WALL (       1 calls)
     electrons    :    475.81s CPU    580.80s WALL (       1 calls)
     forces       :      5.61s CPU      6.90s WALL (       1 calls)

     Called by init_run:
     wfcinit      :      6.11s CPU      7.76s WALL (       1 calls)
     potinit      :      1.10s CPU      1.56s WALL (       1 calls)
     hinit0       :      1.66s CPU      2.43s WALL (       1 calls)

     Called by electrons:
     c_bands      :    423.87s CPU    516.19s WALL (      18 calls)
     sum_band     :     41.06s CPU     51.54s WALL (      18 calls)
     v_of_rho     :      1.75s CPU      2.11s WALL (      19 calls)
     newd         :      5.65s CPU      7.10s WALL (      19 calls)
     PAW_pot      :      3.01s CPU      3.50s WALL (      19 calls)
     mix_rho      :      0.23s CPU      0.29s WALL (      18 calls)

     Called by c_bands:
     init_us_2    :      1.29s CPU      1.56s WALL (     684 calls)
     cegterg      :    379.64s CPU    463.88s WALL (     324 calls)

     Called by *egterg:
     cdiaghg      :     18.39s CPU     23.39s WALL (    1398 calls)
     h_psi        :    188.67s CPU    233.63s WALL (    1416 calls)
     s_psi        :     33.09s CPU     41.05s WALL (    1416 calls)
     g_psi        :      0.39s CPU      0.48s WALL (    1074 calls)

     Called by h_psi:
     h_psi:calbec :     49.61s CPU     58.80s WALL (    1416 calls)
     vloc_psi     :    104.83s CPU    132.52s WALL (    1416 calls)
     add_vuspsi   :     33.93s CPU     41.95s WALL (    1416 calls)

     General routines
     calbec       :     68.08s CPU     80.87s WALL (    1812 calls)
     fft          :      2.09s CPU      2.41s WALL (     256 calls)
     ffts         :      0.07s CPU      0.10s WALL (      37 calls)
     fftw         :    112.10s CPU    141.96s WALL (   98808 calls)
     interpolate  :      0.12s CPU      0.15s WALL (      19 calls)

     Parallel routines
     fft_scatt_xy :      6.71s CPU      8.35s WALL (   99101 calls)
     fft_scatt_yz :     72.26s CPU     92.09s WALL (   99101 calls)

     PWSCF        :   8m11.83s CPU  10m 1.65s WALL


   This run was terminated on:  20:27:13   3Jul2026            

=------------------------------------------------------------------------------=
   JOB DONE.
=------------------------------------------------------------------------------=
