
     Program PWSCF v.6.7MaX starts on  1Jul2026 at 13:22: 9 

     This program is part of the open-source Quantum ESPRESSO suite
     for quantum simulation of materials; please cite
         "P. Giannozzi et al., J. Phys.:Condens. Matter 21 395502 (2009);
         "P. Giannozzi et al., J. Phys.:Condens. Matter 29 465901 (2017);
          URL http://www.quantum-espresso.org", 
     in publications or presentations arising from this work. More details at
     http://www.quantum-espresso.org/quote

     Parallel version (MPI), running on     8 processors

     MPI processes distributed on     1 nodes
     K-points division:     npool     =       2
     R & G space division:  proc/nbgrp/npool/nimage =       4
     Waiting for input...
     Reading input from standard input

     Current dimensions of program PWSCF are:
     Max number of different atomic species (ntypx) = 10
     Max number of k-points (npk) =  40000
     Max angular momentum in pseudopotentials (lmaxx) =  3
     file Ca.pbe-spn-kjpaw_psl.1.0.0.UPF: wavefunction(s)  3S renormalized
     file O.pbe-n-kjpaw_psl.0.1.UPF: wavefunction(s)  2P renormalized

     Subspace diagonalization in iterative solution of the eigenvalue problem:
     one sub-group per band group will be used
     scalapack distributed-memory algorithm (size of sub-group:  2*  2 procs)

     Message from routine setup:
     using ibrav=0 with symmetry is DISCOURAGED, use correct ibrav instead

     Parallelization info
     --------------------
     sticks:   dense  smooth     PW     G-vecs:    dense   smooth      PW
     Min         835     417    121                51066    18053    2763
     Max         836     418    122                51067    18056    2766
     Sum        3341    1671    485               204267    72219   11059



     bravais-lattice index     =            0
     lattice parameter (alat)  =      10.1517  a.u.
     unit-cell volume          =    1512.3000 (a.u.)^3
     number of atoms/cell      =           20
     number of atomic types    =            3
     number of electrons       =       160.00
     number of Kohn-Sham states=           96
     kinetic-energy cutoff     =      50.0000  Ry
     charge density cutoff     =     400.0000  Ry
     scf convergence threshold =      1.0E-08
     mixing beta               =       0.3000
     number of iterations used =            8  plain     mixing
     energy convergence thresh.=      1.0E-05
     force convergence thresh. =      1.0E-04
     press convergence thresh. =      5.0E-01
     Exchange-correlation= SLA  PW   PBX  PBC
                           (   1   4   3   4   0   0   0)
     nstep                     =           50


     celldm(1)=  10.151701  celldm(2)=   0.000000  celldm(3)=   0.000000
     celldm(4)=   0.000000  celldm(5)=   0.000000  celldm(6)=   0.000000

     crystal axes: (cart. coord. in units of alat)
               a(1) = (   1.000000   0.000000   0.000000 )  
               a(2) = (   0.000000   1.016893   0.000000 )  
               a(3) = (   0.000000   0.000000   1.421499 )  

     reciprocal axes: (cart. coord. in units 2 pi/alat)
               b(1) = (  1.000000  0.000000  0.000000 )  
               b(2) = (  0.000000  0.983388  0.000000 )  
               b(3) = (  0.000000  0.000000  0.703483 )  


     PseudoPot. # 1 for Ca read from file:
     /data/pseudopotentials/Ca.pbe-spn-kjpaw_psl.1.0.0.UPF
     MD5 check sum: 1e11ab70c77b02a7d7d676f41d47b751
     Pseudo is Projector augmented-wave + core cor, Zval = 10.0
     Generated using &quot;atomic&quot; code by A. Dal Corso  v.6.4.1
     Shape of augmentation charge: PSQ
     Using radial grid of 1169 points,  6 beta functions with: 
                l(1) =   0
                l(2) =   0
                l(3) =   1
                l(4) =   1
                l(5) =   2
                l(6) =   2
     Q(r) pseudized with 0 coefficients 


     PseudoPot. # 2 for Ti read from file:
     /data/pseudopotentials/ti_pbe_v1.4.uspp.F.UPF
     MD5 check sum: 88a00a6731bd790ddea75d31a80cb452
     Pseudo is Ultrasoft + core correction, Zval = 12.0
     Generated by new atomic code, or converted to UPF format
     Using radial grid of  851 points,  6 beta functions with: 
                l(1) =   0
                l(2) =   0
                l(3) =   1
                l(4) =   1
                l(5) =   2
                l(6) =   2
     Q(r) pseudized with  6 coefficients,  rinner =    1.000   1.000   1.000
                                                       1.000   1.000

     PseudoPot. # 3 for O  read from file:
     /data/pseudopotentials/O.pbe-n-kjpaw_psl.0.1.UPF
     MD5 check sum: 833c495a5d0f9b75bf046115549bffff
     Pseudo is Projector augmented-wave + core cor, Zval =  6.0
     Generated using &quot;atomic&quot; code by A. Dal Corso  v.6.3
     Shape of augmentation charge: BESSEL
     Using radial grid of 1095 points,  4 beta functions with: 
                l(1) =   0
                l(2) =   0
                l(3) =   1
                l(4) =   1
     Q(r) pseudized with 0 coefficients 


     atomic species   valence    mass     pseudopotential
        Ca            10.00    40.07800     Ca( 1.00)
        Ti            12.00    47.86700     Ti( 1.00)
        O              6.00    15.99900     O ( 1.00)

      8 Sym. Ops., with inversion, found ( 6 have fractional translation)



   Cartesian axes

     site n.     atom                  positions (alat units)
         1           Ca  tau(   1) = (   0.5090669   0.5515600   1.0661239  )
         2           Ca  tau(   2) = (   0.4909331   0.4653325   0.3553746  )
         3           Ca  tau(   3) = (   0.9909331   0.0431138   1.0661239  )
         4           Ca  tau(   4) = (   0.0090669   0.9737788   0.3553746  )
         5           Ti  tau(   5) = (   0.0000000   0.5084463   0.7107493  )
         6           Ti  tau(   6) = (   0.0000000   0.5084463   0.0000000  )
         7           Ti  tau(   7) = (   0.5000000   0.0000000   0.7107493  )
         8           Ti  tau(   8) = (   0.5000000   0.0000000   0.0000000  )
         9           O   tau(   9) = (   0.0767811   0.4894585   1.0661239  )
        10           O   tau(  10) = (   0.9232189   0.5274341   0.3553746  )
        11           O   tau(  11) = (   0.4232189   0.9979048   1.0661239  )
        12           O   tau(  12) = (   0.5767811   0.0189878   0.3553746  )
        13           O   tau(  13) = (   0.7902937   0.8029524   1.3644130  )
        14           O   tau(  14) = (   0.2097063   0.2139402   0.6536637  )
        15           O   tau(  15) = (   0.2097063   0.2139402   0.0570856  )
        16           O   tau(  16) = (   0.7902937   0.8029524   0.7678348  )
        17           O   tau(  17) = (   0.7097063   0.2945061   1.3644130  )
        18           O   tau(  18) = (   0.2902937   0.7223865   0.6536637  )
        19           O   tau(  19) = (   0.2902937   0.7223865   0.0570856  )
        20           O   tau(  20) = (   0.7097063   0.2945061   0.7678348  )

     number of k points=    27  Gaussian smearing, width (Ry)=  0.0050
                       cart. coord. in units 2pi/alat
        k(    1) = (   0.0000000   0.0000000   0.0000000), wk =   0.0312500
        k(    2) = (   0.0000000   0.0000000   0.1758707), wk =   0.0625000
        k(    3) = (   0.0000000   0.0000000  -0.3517415), wk =   0.0312500
        k(    4) = (   0.0000000   0.2458470   0.0000000), wk =   0.0625000
        k(    5) = (   0.0000000   0.2458470   0.1758707), wk =   0.1250000
        k(    6) = (   0.0000000   0.2458470  -0.3517415), wk =   0.0625000
        k(    7) = (   0.0000000  -0.4916940   0.0000000), wk =   0.0312500
        k(    8) = (   0.0000000  -0.4916940   0.1758707), wk =   0.0625000
        k(    9) = (   0.0000000  -0.4916940  -0.3517415), wk =   0.0312500
        k(   10) = (   0.2500000   0.0000000   0.0000000), wk =   0.0625000
        k(   11) = (   0.2500000   0.0000000   0.1758707), wk =   0.1250000
        k(   12) = (   0.2500000   0.0000000  -0.3517415), wk =   0.0625000
        k(   13) = (   0.2500000   0.2458470   0.0000000), wk =   0.1250000
        k(   14) = (   0.2500000   0.2458470   0.1758707), wk =   0.2500000
        k(   15) = (   0.2500000   0.2458470  -0.3517415), wk =   0.1250000
        k(   16) = (   0.2500000  -0.4916940   0.0000000), wk =   0.0625000
        k(   17) = (   0.2500000  -0.4916940   0.1758707), wk =   0.1250000
        k(   18) = (   0.2500000  -0.4916940  -0.3517415), wk =   0.0625000
        k(   19) = (  -0.5000000   0.0000000   0.0000000), wk =   0.0312500
        k(   20) = (  -0.5000000   0.0000000   0.1758707), wk =   0.0625000
        k(   21) = (  -0.5000000   0.0000000  -0.3517415), wk =   0.0312500
        k(   22) = (  -0.5000000   0.2458470   0.0000000), wk =   0.0625000
        k(   23) = (  -0.5000000   0.2458470   0.1758707), wk =   0.1250000
        k(   24) = (  -0.5000000   0.2458470  -0.3517415), wk =   0.0625000
        k(   25) = (  -0.5000000  -0.4916940   0.0000000), wk =   0.0312500
        k(   26) = (  -0.5000000  -0.4916940   0.1758707), wk =   0.0625000
        k(   27) = (  -0.5000000  -0.4916940  -0.3517415), wk =   0.0312500

     Dense  grid:   204267 G-vectors     FFT dimensions: (  72,  72,  96)

     Smooth grid:    72219 G-vectors     FFT dimensions: (  48,  48,  72)

     Estimated max dynamical RAM per process >     186.28 MB

     Estimated total dynamical RAM >       1.46 GB

     Check: negative core charge=   -0.000005

     Initial potential from superposition of free atoms

     starting charge  155.98039, renormalised to  160.00000

     negative rho (up, down):  4.596E-03 0.000E+00
     Starting wfcs are  120 randomized atomic wfcs
     Checking if some PAW data can be deallocated... 

     total cpu time spent up to now is       44.6 secs

     Self-consistent Calculation

     iteration #  1     ecut=    50.00 Ry     beta= 0.30
     Davidson diagonalization with overlap
     ethr =  1.00E-02,  avg # of iterations =  2.0

     negative rho (up, down):  5.908E-03 0.000E+00

     total cpu time spent up to now is      132.2 secs

     total energy              =   -1513.01648261 Ry
     estimated scf accuracy    <       3.59374321 Ry

     iteration #  2     ecut=    50.00 Ry     beta= 0.30
     Davidson diagonalization with overlap
     ethr =  2.25E-03,  avg # of iterations =  3.1

     negative rho (up, down):  4.954E-03 0.000E+00

     total cpu time spent up to now is      235.8 secs

     total energy              =   -1513.77004406 Ry
     estimated scf accuracy    <       0.61306393 Ry

     iteration #  3     ecut=    50.00 Ry     beta= 0.30
     Davidson diagonalization with overlap
     ethr =  3.83E-04,  avg # of iterations =  5.4

     negative rho (up, down):  4.949E-03 0.000E+00

     total cpu time spent up to now is      343.9 secs

     total energy              =   -1513.94924256 Ry
     estimated scf accuracy    <       0.08477418 Ry

     iteration #  4     ecut=    50.00 Ry     beta= 0.30
     Davidson diagonalization with overlap
     ethr =  5.30E-05,  avg # of iterations =  6.1

     negative rho (up, down):  4.852E-03 0.000E+00

     total cpu time spent up to now is      474.4 secs

     total energy              =   -1513.97852299 Ry
     estimated scf accuracy    <       0.03010986 Ry

     iteration #  5     ecut=    50.00 Ry     beta= 0.30
     Davidson diagonalization with overlap
     ethr =  1.88E-05,  avg # of iterations =  2.3

     negative rho (up, down):  4.717E-03 0.000E+00

     total cpu time spent up to now is      571.7 secs

     total energy              =   -1513.98258315 Ry
     estimated scf accuracy    <       0.00350864 Ry

     iteration #  6     ecut=    50.00 Ry     beta= 0.30
     Davidson diagonalization with overlap
     ethr =  2.19E-06,  avg # of iterations =  9.6

     negative rho (up, down):  4.644E-03 0.000E+00

     total cpu time spent up to now is      723.0 secs

     total energy              =   -1513.98354925 Ry
     estimated scf accuracy    <       0.00047833 Ry

     iteration #  7     ecut=    50.00 Ry     beta= 0.30
     Davidson diagonalization with overlap
     ethr =  2.99E-07,  avg # of iterations =  5.1

     negative rho (up, down):  4.632E-03 0.000E+00

     total cpu time spent up to now is      854.8 secs

     total energy              =   -1513.98363051 Ry
     estimated scf accuracy    <       0.00038396 Ry

     iteration #  8     ecut=    50.00 Ry     beta= 0.30
     Davidson diagonalization with overlap
     ethr =  2.40E-07,  avg # of iterations =  2.0

     negative rho (up, down):  4.639E-03 0.000E+00

     total cpu time spent up to now is      948.4 secs

     total energy              =   -1513.98362295 Ry
     estimated scf accuracy    <       0.00006776 Ry

     iteration #  9     ecut=    50.00 Ry     beta= 0.30
     Davidson diagonalization with overlap
     ethr =  4.23E-08,  avg # of iterations =  5.1

     negative rho (up, down):  4.634E-03 0.000E+00

     total cpu time spent up to now is     1095.5 secs

     total energy              =   -1513.98365862 Ry
     estimated scf accuracy    <       0.00004326 Ry

     iteration # 10     ecut=    50.00 Ry     beta= 0.30
     Davidson diagonalization with overlap
     ethr =  2.70E-08,  avg # of iterations =  2.0

     negative rho (up, down):  4.635E-03 0.000E+00

     total cpu time spent up to now is     1198.7 secs

     total energy              =   -1513.98366871 Ry
     estimated scf accuracy    <       0.00000122 Ry

     iteration # 11     ecut=    50.00 Ry     beta= 0.30
     Davidson diagonalization with overlap
     ethr =  7.64E-10,  avg # of iterations =  5.4

     negative rho (up, down):  4.634E-03 0.000E+00

     total cpu time spent up to now is     1345.0 secs

     total energy              =   -1513.98366997 Ry
     estimated scf accuracy    <       0.00000100 Ry

     iteration # 12     ecut=    50.00 Ry     beta= 0.30
     Davidson diagonalization with overlap
     ethr =  6.28E-10,  avg # of iterations =  2.0

     negative rho (up, down):  4.634E-03 0.000E+00

     total cpu time spent up to now is     1426.8 secs

     total energy              =   -1513.98366961 Ry
     estimated scf accuracy    <       0.00000079 Ry

     iteration # 13     ecut=    50.00 Ry     beta= 0.30
     Davidson diagonalization with overlap
     ethr =  4.96E-10,  avg # of iterations =  4.7

     negative rho (up, down):  4.634E-03 0.000E+00

     total cpu time spent up to now is     1529.6 secs

     End of self-consistent calculation

          k = 0.0000 0.0000 0.0000 (  9061 PWs)   bands (ev):

   -47.0312 -47.0291 -47.0273 -47.0253 -28.7330 -28.7258 -28.7144 -28.7071
   -23.3670 -23.3633 -23.3546 -23.3507 -23.3467 -23.3389 -23.2895 -23.2815
   -23.2784 -23.2746 -23.2724 -23.2642 -10.2449 -10.0811 -10.0599 -10.0189
    -9.9986  -9.9170  -9.8070  -9.8013  -9.7746  -9.7676  -9.7665  -9.7321
    -8.0568  -7.2420  -7.0958  -6.9225  -6.8887  -6.8523  -6.7675  -6.6186
    -6.5780  -6.5654  -6.3674  -6.3072   4.7779   4.9913   5.0104   5.0191
     5.2583   5.3032   5.3769   5.3857   5.4048   5.4172   6.2967   6.5530
     6.5999   6.6882   6.7896   6.8547   6.8600   6.9053   6.9764   7.0983
     7.1840   7.7211   7.7213   7.7538   8.1841   8.3072   8.3797   8.7361
     8.7508   8.7574   8.8058   8.8088   8.9670   8.9812   9.0317   9.0435
    11.4738  11.4804  11.5559  11.6960  12.7819  12.7918  13.1266  13.1356
    13.1767  13.2337  13.4878  13.7265  14.3492  14.3652  14.4290  14.9456

          k = 0.0000 0.0000 0.1759 (  9040 PWs)   bands (ev):

   -47.0309 -47.0294 -47.0270 -47.0256 -28.7320 -28.7268 -28.7134 -28.7082
   -23.3601 -23.3552 -23.3514 -23.3509 -23.3478 -23.3336 -23.2990 -23.2864
   -23.2810 -23.2785 -23.2718 -23.2667 -10.1926 -10.0678 -10.0559 -10.0254
   -10.0121  -9.8868  -9.8843  -9.7981  -9.7761  -9.7733  -9.7675  -9.7556
    -7.9264  -7.2733  -7.1574  -6.9139  -6.9052  -6.8154  -6.7333  -6.6685
    -6.5792  -6.5326  -6.4065  -6.3500   4.8660   5.0193   5.0854   5.2141
     5.2894   5.3187   5.3671   5.4763   5.5079   5.5138   6.2239   6.3715
     6.3852   6.5473   6.5578   6.6658   6.7219   7.1114   7.1914   7.2807
     7.3088   7.3538   7.9489   8.0446   8.1266   8.1498   8.2139   8.5116
     8.7549   8.7843   8.8029   8.8517   8.8537   8.8878   8.9597   8.9908
    11.5693  11.5715  11.7591  11.8634  12.7019  12.8526  12.9357  13.1452
    13.1898  13.3809  13.4751  13.6163  14.3516  14.3644  14.5236  15.2664

          k = 0.0000 0.0000-0.3517 (  9076 PWs)   bands (ev):

   -47.0301 -47.0301 -47.0263 -47.0263 -28.7294 -28.7294 -28.7108 -28.7108
   -23.3529 -23.3529 -23.3514 -23.3514 -23.3248 -23.3248 -23.3126 -23.3126
   -23.2798 -23.2798 -23.2699 -23.2699 -10.0643 -10.0643 -10.0416 -10.0416
   -10.0261 -10.0261  -9.8206  -9.8206  -9.7874  -9.7874  -9.7704  -9.7704
    -7.6143  -7.6143  -6.9774  -6.9774  -6.8530  -6.8530  -6.7483  -6.7483
    -6.4918  -6.4918  -6.4466  -6.4466   5.0495   5.0495   5.1093   5.1093
     5.3289   5.3289   5.6203   5.6203   5.8184   5.8184   6.0234   6.0234
     6.1783   6.1783   6.6458   6.6458   6.6588   6.6588   7.5037   7.5037
     7.6546   7.6546   7.7282   7.7282   7.7947   7.7947   8.5964   8.5964
     8.6577   8.6577   8.7914   8.7914   8.8433   8.8433   8.9327   8.9327
    11.5896  11.5896  12.3126  12.3126  12.4107  12.4107  13.0101  13.0101
    13.3489  13.3489  13.4846  13.4846  14.3577  14.3577  15.0257  15.0257

          k = 0.0000 0.2458 0.0000 (  9021 PWs)   bands (ev):

   -47.0306 -47.0285 -47.0278 -47.0258 -28.7306 -28.7228 -28.7175 -28.7096
   -23.3644 -23.3631 -23.3441 -23.3402 -23.3367 -23.3312 -23.2932 -23.2923
   -23.2889 -23.2827 -23.2754 -23.2708 -10.1850 -10.0697 -10.0531  -9.9869
    -9.9677  -9.9528  -9.8702  -9.8482  -9.8107  -9.8007  -9.7968  -9.7433
    -7.8175  -7.1887  -7.0553  -6.8969  -6.8662  -6.8652  -6.6933  -6.6902
    -6.6092  -6.5836  -6.4944  -6.3904   5.0309   5.0416   5.1335   5.2619
     5.4082   5.4530   5.4924   5.5391   5.6157   5.6518   6.0718   6.1759
     6.2698   6.4928   6.5474   6.6089   6.6559   6.7447   7.0647   7.4847
     7.6581   7.7621   7.8901   7.9316   7.9543   8.0044   8.0917   8.2397
     8.3657   8.5398   8.5534   8.6109   8.7364   8.9229   8.9574   8.9680
    11.7672  11.8244  12.0460  12.1064  12.7891  12.8702  12.9696  13.1611
    13.2564  13.2796  13.3833  13.5834  14.4597  14.5349  14.5987  14.8491

          k = 0.0000 0.2458 0.1759 (  9038 PWs)   bands (ev):

   -47.0303 -47.0288 -47.0275 -47.0261 -28.7295 -28.7239 -28.7163 -28.7107
   -23.3554 -23.3521 -23.3433 -23.3408 -23.3378 -23.3281 -23.3006 -23.2918
   -23.2897 -23.2864 -23.2821 -23.2754 -10.1403 -10.0595 -10.0394 -10.0032
    -9.9793  -9.9151  -9.8996  -9.8438  -9.8282  -9.8115  -9.8114  -9.7706
    -7.7126  -7.1838  -7.1047  -6.8943  -6.8532  -6.8161  -6.7037  -6.6993
    -6.6238  -6.5817  -6.5545  -6.4323   5.0891   5.2407   5.2578   5.3777
     5.4654   5.4862   5.5519   5.5541   5.6627   5.6631   6.1439   6.1867
     6.1941   6.4091   6.4749   6.4824   6.5613   6.6964   6.7811   7.2690
     7.5728   7.6207   7.8572   8.0064   8.0818   8.1138   8.1755   8.2094
     8.3935   8.4870   8.5367   8.5658   8.7951   8.8372   8.9072   8.9463
    11.9382  12.0172  12.0635  12.1239  12.8045  12.8654  12.9718  13.0364
    13.2786  13.3294  13.3600  13.4335  14.5453  14.5909  14.6388  15.1797

          k = 0.0000 0.2458-0.3517 (  9052 PWs)   bands (ev):

   -47.0296 -47.0296 -47.0268 -47.0268 -28.7267 -28.7267 -28.7135 -28.7135
   -23.3424 -23.3424 -23.3423 -23.3423 -23.3248 -23.3248 -23.3118 -23.3118
   -23.2905 -23.2905 -23.2801 -23.2801 -10.0331 -10.0331 -10.0322 -10.0322
    -9.9970  -9.9970  -9.8433  -9.8433  -9.8273  -9.8273  -9.8262  -9.8262
    -7.4568  -7.4568  -6.9174  -6.9174  -6.8357  -6.8357  -6.7354  -6.7354
    -6.6202  -6.6202  -6.5195  -6.5195   5.2169   5.2169   5.4706   5.4706
     5.5196   5.5196   5.6881   5.6881   5.8331   5.8331   6.0270   6.0270
     6.1931   6.1931   6.3893   6.3893   6.5411   6.5411   7.0895   7.0895
     7.1189   7.1189   7.8921   7.8921   8.2257   8.2257   8.3425   8.3425
     8.4135   8.4135   8.5875   8.5875   8.7646   8.7646   8.8894   8.8894
    12.0679  12.0679  12.4604  12.4604  12.4864  12.4864  13.0980  13.0980
    13.2153  13.2153  13.3188  13.3188  14.5693  14.5693  15.2343  15.2343

          k = 0.0000-0.4917 0.0000 (  9036 PWs)   bands (ev):

   -47.0292 -47.0292 -47.0272 -47.0272 -28.7243 -28.7243 -28.7160 -28.7160
   -23.3629 -23.3629 -23.3184 -23.3184 -23.3153 -23.3153 -23.3119 -23.3119
   -23.3077 -23.3077 -23.2758 -23.2758 -10.0567 -10.0567 -10.0410 -10.0410
    -9.9393  -9.9393  -9.9096  -9.9096  -9.8778  -9.8778  -9.7706  -9.7706
    -7.3567  -7.3567  -6.9359  -6.9359  -6.8536  -6.8536  -6.7029  -6.7029
    -6.6674  -6.6674  -6.5084  -6.5084   5.1063   5.1063   5.4396   5.4396
     5.5228   5.5228   5.8441   5.8441   5.9245   5.9245   6.0870   6.0870
     6.2263   6.2263   6.4866   6.4866   6.6265   6.6265   6.6953   6.6953
     7.4856   7.4856   7.7085   7.7085   7.9340   7.9340   8.2570   8.2570
     8.3885   8.3885   8.5071   8.5071   8.6325   8.6325   8.8449   8.8449
    12.3188  12.3188  12.4457  12.4457  12.7781  12.7781  12.9154  12.9154
    13.1029  13.1029  13.3490  13.3490  14.6275  14.6275  15.4964  15.4973

          k = 0.0000-0.4917 0.1759 (  9032 PWs)   bands (ev):

   -47.0289 -47.0289 -47.0275 -47.0275 -28.7231 -28.7231 -28.7172 -28.7172
   -23.3520 -23.3520 -23.3178 -23.3178 -23.3166 -23.3166 -23.3133 -23.3133
   -23.3067 -23.3067 -23.2859 -23.2859 -10.0403 -10.0403 -10.0143 -10.0143
    -9.9337  -9.9337  -9.9120  -9.9120  -9.8944  -9.8944  -9.8054  -9.8054
    -7.2810  -7.2810  -6.9655  -6.9655  -6.8085  -6.8085  -6.7257  -6.7257
    -6.6828  -6.6828  -6.5691  -6.5691   5.2663   5.2663   5.5121   5.5121
     5.6596   5.6596   5.8311   5.8311   6.0261   6.0261   6.0511   6.0511
     6.2754   6.2754   6.4262   6.4262   6.5190   6.5190   6.6522   6.6522
     7.0353   7.0353   7.3896   7.3896   8.2421   8.2421   8.3588   8.3588
     8.4726   8.4726   8.5274   8.5274   8.5702   8.5702   8.8291   8.8291
    12.4259  12.4259  12.5444  12.5444  12.7944  12.7944  12.8955  12.8955
    13.0845  13.0845  13.1712  13.1712  14.9212  14.9212  15.5158  15.5222

          k = 0.0000-0.4917-0.3517 (  8992 PWs)   bands (ev):

   -47.0282 -47.0282 -47.0282 -47.0282 -28.7201 -28.7201 -28.7201 -28.7201
   -23.3282 -23.3282 -23.3282 -23.3282 -23.3161 -23.3161 -23.3161 -23.3161
   -23.3019 -23.3019 -23.3019 -23.3019 -10.0025 -10.0025 -10.0025 -10.0025
    -9.9215  -9.9215  -9.9215  -9.9215  -9.8785  -9.8785  -9.8785  -9.8785
    -7.1039  -7.1039  -7.1039  -7.1039  -6.7287  -6.7287  -6.7287  -6.7287
    -6.6874  -6.6874  -6.6874  -6.6874   5.5001   5.5001   5.5001   5.5001
     5.8530   5.8530   5.8530   5.8530   6.0603   6.0603   6.0603   6.0603
     6.4518   6.4518   6.4518   6.4518   6.5722   6.5722   6.5722   6.5722
     6.6997   6.6997   6.6997   6.6997   8.4013   8.4013   8.4013   8.4013
     8.5028   8.5028   8.5028   8.5028   8.7507   8.7507   8.7507   8.7507
    12.7330  12.7330  12.7330  12.7330  12.8284  12.8284  12.8284  12.8284
    12.8751  12.8751  12.8751  12.8751  15.5424  15.5425  15.5429  15.5430

          k = 0.2500 0.0000 0.0000 (  9031 PWs)   bands (ev):

   -47.0306 -47.0285 -47.0278 -47.0258 -28.7306 -28.7232 -28.7171 -28.7096
   -23.3646 -23.3632 -23.3436 -23.3406 -23.3363 -23.3315 -23.2930 -23.2918
   -23.2893 -23.2832 -23.2753 -23.2707 -10.1884 -10.1208 -10.0394  -9.9685
    -9.9610  -9.9546  -9.9313  -9.8524  -9.7872  -9.7858  -9.7793  -9.7392
    -7.7952  -7.1965  -7.0494  -6.8738  -6.8669  -6.8592  -6.7173  -6.6538
    -6.6476  -6.5571  -6.4581  -6.4278   5.0306   5.0419   5.0712   5.2670
     5.3110   5.4379   5.4745   5.5172   5.6237   5.7246   5.9960   6.0449
     6.4209   6.4767   6.5051   6.6468   6.7389   6.7543   7.0046   7.3523
     7.5736   7.7438   7.9105   7.9145   7.9654   8.0956   8.1464   8.3128
     8.3151   8.5198   8.6623   8.8280   8.8335   8.8603   8.8829   8.9597
    11.7799  11.8098  11.9590  12.0673  12.8022  12.8648  12.9389  13.1938
    13.2576  13.2810  13.3681  13.5813  14.4333  14.6174  14.6288  14.8478

          k = 0.2500 0.0000 0.1759 (  9025 PWs)   bands (ev):

   -47.0303 -47.0288 -47.0275 -47.0261 -28.7295 -28.7242 -28.7160 -28.7107
   -23.3556 -23.3523 -23.3429 -23.3411 -23.3375 -23.3282 -23.3006 -23.2914
   -23.2899 -23.2864 -23.2824 -23.2753 -10.1465 -10.1015 -10.0424  -9.9847
    -9.9625  -9.9506  -9.9146  -9.8606  -9.8310  -9.7873  -9.7775  -9.7644
    -7.6929  -7.1777  -7.1088  -6.8764  -6.8538  -6.8179  -6.7170  -6.6655
    -6.6173  -6.6129  -6.5039  -6.4684   5.0824   5.1325   5.2139   5.3590
     5.4608   5.5297   5.5311   5.5687   5.6528   5.6727   5.9965   6.0957
     6.3157   6.4215   6.4858   6.5472   6.6059   6.6594   6.8213   7.2922
     7.4720   7.5430   7.7967   7.8926   8.0435   8.1530   8.2741   8.3071
     8.4104   8.5542   8.5814   8.6208   8.8347   8.8861   8.9217   8.9478
    11.9599  11.9625  11.9912  12.1093  12.7930  12.8693  13.0051  13.0087
    13.2741  13.3301  13.3506  13.4330  14.5850  14.6305  14.6596  15.1774

          k = 0.2500 0.0000-0.3517 (  9042 PWs)   bands (ev):

   -47.0296 -47.0296 -47.0268 -47.0268 -28.7268 -28.7268 -28.7134 -28.7134
   -23.3426 -23.3426 -23.3422 -23.3422 -23.3249 -23.3249 -23.3119 -23.3119
   -23.2905 -23.2905 -23.2801 -23.2801 -10.0715 -10.0715 -10.0296 -10.0296
    -9.9796  -9.9796  -9.8816  -9.8816  -9.8233  -9.8233  -9.7841  -9.7841
    -7.4427  -7.4427  -6.9246  -6.9246  -6.8268  -6.8268  -6.7279  -6.7279
    -6.5986  -6.5986  -6.5408  -6.5408   5.1435   5.1435   5.4798   5.4798
     5.5240   5.5240   5.5929   5.5929   5.9170   5.9170   5.9704   5.9704
     6.1937   6.1937   6.4517   6.4517   6.5633   6.5633   7.0740   7.0740
     7.1074   7.1074   7.7574   7.7574   8.1800   8.1800   8.3632   8.3632
     8.5044   8.5044   8.7162   8.7162   8.7776   8.7776   8.8992   8.8992
    12.0077  12.0077  12.4389  12.4389  12.5161  12.5162  13.0950  13.0950
    13.2039  13.2039  13.3152  13.3152  14.6249  14.6249  15.2571  15.2571

          k = 0.2500 0.2458 0.0000 (  9048 PWs)   bands (ev):

   -47.0302 -47.0282 -47.0281 -47.0262 -28.7289 -28.7212 -28.7190 -28.7113
   -23.3659 -23.3634 -23.3509 -23.3476 -23.3160 -23.3146 -23.3112 -23.3111
   -23.2852 -23.2753 -23.2749 -23.2671 -10.1855 -10.1391 -10.0779 -10.0318
    -9.9741  -9.9305  -9.9147  -9.8656  -9.7883  -9.7699  -9.7505  -9.7460
    -7.6100  -7.1449  -7.1420  -6.9454  -6.9346  -6.8081  -6.7536  -6.6929
    -6.5268  -6.4996  -6.4819  -6.4536   5.0445   5.0446   5.0508   5.1083
     5.2998   5.3967   5.4004   5.6919   5.8123   5.9450   6.0075   6.0787
     6.2895   6.5706   6.6679   6.7363   6.8158   6.9404   7.0595   7.2816
     7.3514   7.5819   7.7198   7.7436   7.8095   7.9751   8.0373   8.1673
     8.2080   8.5553   8.5796   8.6827   8.6969   8.8257   8.8490   8.9615
    11.5447  12.3471  12.3527  12.4130  12.4156  12.8740  13.0016  13.0138
    13.2123  13.3243  13.3492  13.5362  14.3761  14.6933  14.7192  14.9941

          k = 0.2500 0.2458 0.1759 (  9030 PWs)   bands (ev):

   -47.0299 -47.0284 -47.0279 -47.0265 -28.7277 -28.7221 -28.7181 -28.7125
   -23.3591 -23.3524 -23.3515 -23.3429 -23.3173 -23.3139 -23.3126 -23.3100
   -23.2940 -23.2860 -23.2743 -23.2698 -10.1655 -10.1069 -10.0659 -10.0452
    -9.9558  -9.9369  -9.9082  -9.8767  -9.8304  -9.7784  -9.7671  -9.7501
    -7.5279  -7.1877  -7.0622  -6.9182  -6.9110  -6.8249  -6.7453  -6.7230
    -6.5755  -6.5286  -6.5141  -6.4880   5.1002   5.1360   5.1979   5.2066
     5.4320   5.4508   5.5889   5.7294   5.7946   5.9521   6.0025   6.1027
     6.2996   6.4108   6.4616   6.5118   6.6185   6.7489   7.0821   7.1595
     7.3742   7.5178   7.6138   7.7358   7.9428   8.0056   8.1648   8.2364
     8.4059   8.4608   8.4957   8.6376   8.6648   8.7409   8.7851   8.9414
    11.8181  12.3565  12.3839  12.4662  12.5370  12.8087  13.0327  13.0715
    13.0951  13.2508  13.3104  13.4481  14.4405  14.6694  15.0139  15.1481

          k = 0.2500 0.2458-0.3517 (  9028 PWs)   bands (ev):

   -47.0292 -47.0292 -47.0272 -47.0272 -28.7249 -28.7249 -28.7154 -28.7154
   -23.3533 -23.3533 -23.3280 -23.3280 -23.3231 -23.3231 -23.3104 -23.3104
   -23.3047 -23.3047 -23.2726 -23.2726 -10.1157 -10.1157 -10.0409 -10.0409
    -9.9402  -9.9402  -9.9046  -9.9046  -9.8392  -9.8392  -9.7595  -9.7595
    -7.3396  -7.3396  -6.9083  -6.9083  -6.8699  -6.8699  -6.7520  -6.7520
    -6.6311  -6.6311  -6.5087  -6.5087   5.1395   5.1395   5.4405   5.4405
     5.5389   5.5389   5.7548   5.7548   5.9040   5.9040   6.1548   6.1548
     6.1642   6.1642   6.3820   6.3820   6.4971   6.4971   6.8866   6.8866
     7.4097   7.4097   7.6586   7.6586   7.9595   7.9595   8.3072   8.3072
     8.4466   8.4466   8.5820   8.5820   8.6590   8.6590   8.8521   8.8521
    12.3477  12.3477  12.4092  12.4092  12.7479  12.7479  12.8735  12.8735
    13.1178  13.1178  13.3301  13.3301  14.5886  14.5886  15.6397  15.6418

          k = 0.2500-0.4917 0.0000 (  9042 PWs)   bands (ev):

   -47.0292 -47.0292 -47.0272 -47.0272 -28.7245 -28.7245 -28.7158 -28.7158
   -23.3644 -23.3644 -23.3413 -23.3413 -23.3390 -23.3390 -23.2894 -23.2894
   -23.2851 -23.2851 -23.2724 -23.2724 -10.1927 -10.1927 -10.0388 -10.0388
   -10.0161 -10.0161  -9.8173  -9.8173  -9.7783  -9.7783  -9.7750  -9.7750
    -7.2454  -7.2454  -7.1320  -7.1320  -6.9274  -6.9274  -6.6832  -6.6832
    -6.5103  -6.5103  -6.4453  -6.4453   5.0280   5.0280   5.0735   5.0735
     5.2790   5.2790   5.4635   5.4635   6.1010   6.1010   6.4098   6.4098
     6.5612   6.5612   6.6506   6.6506   6.7172   6.7172   7.2660   7.2660
     7.3254   7.3254   7.3515   7.3515   7.7702   7.7702   8.1740   8.1740
     8.3574   8.3574   8.4955   8.4955   8.5977   8.5977   8.9032   8.9032
    11.8367  11.8367  12.7540  12.7540  12.8032  12.8032  13.0382  13.0382
    13.0898  13.0898  13.4532  13.4532  14.4542  14.4542  15.1743  15.1743

          k = 0.2500-0.4917 0.1759 (  9016 PWs)   bands (ev):

   -47.0289 -47.0289 -47.0275 -47.0275 -28.7232 -28.7232 -28.7170 -28.7170
   -23.3549 -23.3549 -23.3418 -23.3418 -23.3368 -23.3368 -23.2961 -23.2961
   -23.2845 -23.2845 -23.2779 -23.2779 -10.1696 -10.1696 -10.0529 -10.0529
    -9.9913  -9.9913  -9.8242  -9.8242  -9.8030  -9.8030  -9.7829  -9.7829
    -7.1906  -7.1906  -7.1138  -7.1138  -6.9065  -6.9065  -6.6904  -6.6904
    -6.5631  -6.5631  -6.4867  -6.4867   5.1097   5.1097   5.2733   5.2733
     5.3780   5.3780   5.4898   5.4898   6.1167   6.1167   6.2562   6.2562
     6.4586   6.4586   6.6076   6.6076   6.6761   6.6761   6.7941   6.7941
     7.2801   7.2801   7.7433   7.7433   7.9701   7.9701   8.1009   8.1009
     8.2393   8.2393   8.4621   8.4621   8.5598   8.5598   8.8835   8.8835
    12.0408  12.0408  12.7812  12.7812  12.7916  12.7916  13.0119  13.0119
    13.0929  13.0929  13.3476  13.3476  14.6171  14.6171  15.1291  15.1291

          k = 0.2500-0.4917-0.3517 (  9016 PWs)   bands (ev):

   -47.0282 -47.0282 -47.0282 -47.0282 -28.7201 -28.7201 -28.7201 -28.7201
   -23.3440 -23.3440 -23.3440 -23.3440 -23.3196 -23.3196 -23.3196 -23.3196
   -23.2825 -23.2825 -23.2825 -23.2825 -10.1117 -10.1117 -10.1117 -10.1117
    -9.9062  -9.9062  -9.9062  -9.9062  -9.7969  -9.7969  -9.7969  -9.7969
    -7.1116  -7.1116  -7.1116  -7.1116  -6.8083  -6.8083  -6.8083  -6.8083
    -6.5595  -6.5595  -6.5595  -6.5595   5.2740   5.2740   5.2740   5.2740
     5.6743   5.6743   5.6743   5.6743   6.0207   6.0207   6.0207   6.0207
     6.3433   6.3433   6.3433   6.3433   6.7320   6.7320   6.7320   6.7320
     7.4465   7.4465   7.4465   7.4465   8.0192   8.0192   8.0192   8.0192
     8.4062   8.4062   8.4062   8.4062   8.7300   8.7300   8.7300   8.7300
    12.4980  12.4980  12.4980  12.4980  12.8866  12.8866  12.8866  12.8866
    13.1622  13.1622  13.1622  13.1622  14.9560  14.9560  14.9560  14.9560

          k =-0.5000 0.0000 0.0000 (  9022 PWs)   bands (ev):

   -47.0292 -47.0292 -47.0272 -47.0272 -28.7245 -28.7245 -28.7157 -28.7157
   -23.3633 -23.3633 -23.3173 -23.3173 -23.3161 -23.3161 -23.3113 -23.3113
   -23.3085 -23.3085 -23.2758 -23.2758 -10.0922 -10.0922 -10.0664 -10.0664
    -9.9628  -9.9628  -9.8982  -9.8982  -9.8376  -9.8376  -9.7587  -9.7587
    -7.3120  -7.3120  -6.9248  -6.9248  -6.8713  -6.8713  -6.7155  -6.7155
    -6.6645  -6.6645  -6.4900  -6.4900   5.0663   5.0663   5.3297   5.3297
     5.5903   5.5903   5.7402   5.7402   5.8487   5.8487   6.1390   6.1390
     6.2766   6.2766   6.3671   6.3671   6.4092   6.4092   7.0436   7.0436
     7.4052   7.4052   7.6462   7.6462   7.9745   7.9745   8.3829   8.3829
     8.5380   8.5380   8.5737   8.5737   8.6101   8.6101   8.7802   8.7802
    12.3841  12.3841  12.4072  12.4072  12.6740  12.6740  12.8233  12.8233
    13.1363  13.1363  13.3837  13.3837  14.6073  14.6073  15.7060  15.7071

          k =-0.5000 0.0000 0.1759 (  9036 PWs)   bands (ev):

   -47.0289 -47.0289 -47.0275 -47.0275 -28.7235 -28.7235 -28.7167 -28.7167
   -23.3523 -23.3523 -23.3172 -23.3172 -23.3167 -23.3167 -23.3131 -23.3131
   -23.3073 -23.3073 -23.2858 -23.2858 -10.0730 -10.0730 -10.0442 -10.0442
    -9.9749  -9.9749  -9.8931  -9.8931  -9.8499  -9.8499  -9.7857  -9.7857
    -7.2385  -7.2385  -6.9409  -6.9409  -6.8383  -6.8383  -6.7383  -6.7383
    -6.6854  -6.6854  -6.5447  -6.5447   5.1611   5.1611   5.4827   5.4827
     5.6642   5.6642   5.7465   5.7465   5.9438   5.9438   6.1480   6.1480
     6.2944   6.2944   6.3054   6.3054   6.4287   6.4287   6.8631   6.8631
     7.0112   7.0112   7.4086   7.4086   8.1697   8.1697   8.3364   8.3364
     8.5801   8.5801   8.6370   8.6370   8.6610   8.6610   8.8073   8.8073
    12.4983  12.4983  12.5003  12.5003  12.6879  12.6879  12.7999  12.7999
    13.1158  13.1158  13.2024  13.2024  14.9150  14.9151  15.6993  15.7018

          k =-0.5000 0.0000-0.3517 (  9028 PWs)   bands (ev):

   -47.0282 -47.0282 -47.0282 -47.0282 -28.7219 -28.7219 -28.7183 -28.7183
   -23.3286 -23.3286 -23.3282 -23.3282 -23.3160 -23.3160 -23.3160 -23.3160
   -23.3020 -23.3020 -23.3018 -23.3018 -10.0350 -10.0350 -10.0297 -10.0297
    -9.9928  -9.9928  -9.8772  -9.8772  -9.8723  -9.8723  -9.8185  -9.8185
    -7.0905  -7.0905  -7.0404  -7.0404  -6.7656  -6.7656  -6.7627  -6.7627
    -6.7297  -6.7297  -6.6050  -6.6050   5.3625   5.3625   5.3708   5.3708
     5.7512   5.7512   5.9612   5.9612   6.1330   6.1330   6.1469   6.1469
     6.3625   6.3625   6.3807   6.3807   6.5364   6.5364   6.5857   6.5857
     6.7329   6.7329   6.7540   6.7540   8.2139   8.2139   8.5096   8.5096
     8.5473   8.5473   8.6675   8.6675   8.7700   8.7700   8.8033   8.8033
    12.6921  12.6921  12.7290  12.7290  12.7479  12.7479  12.8213  12.8213
    12.8594  12.8594  12.9034  12.9034  15.6623  15.6638  15.6746  15.6777

          k =-0.5000 0.2458 0.0000 (  9022 PWs)   bands (ev):

   -47.0292 -47.0292 -47.0272 -47.0272 -28.7246 -28.7246 -28.7156 -28.7156
   -23.3646 -23.3646 -23.3414 -23.3414 -23.3388 -23.3388 -23.2895 -23.2895
   -23.2851 -23.2851 -23.2724 -23.2724 -10.2056 -10.2056 -10.0443 -10.0443
   -10.0226 -10.0226  -9.8149  -9.8149  -9.7727  -9.7727  -9.7685  -9.7685
    -7.2150  -7.2150  -7.1303  -7.1303  -6.9426  -6.9426  -6.6841  -6.6841
    -6.5127  -6.5127  -6.4354  -6.4354   4.9906   4.9906   5.0442   5.0442
     5.2762   5.2762   5.4637   5.4637   6.1966   6.1966   6.3906   6.3906
     6.3970   6.3970   6.5947   6.5947   6.6819   6.6819   7.2661   7.2661
     7.3408   7.3408   7.4381   7.4381   8.0350   8.0350   8.1737   8.1737
     8.1888   8.1888   8.5166   8.5166   8.5837   8.5837   8.9404   8.9404
    11.8474  11.8474  12.7599  12.7599  12.7675  12.7675  13.0455  13.0455
    13.0685  13.0685  13.4410  13.4410  14.4576  14.4576  15.2073  15.2073

          k =-0.5000 0.2458 0.1759 (  9002 PWs)   bands (ev):

   -47.0289 -47.0289 -47.0275 -47.0275 -28.7234 -28.7234 -28.7168 -28.7168
   -23.3551 -23.3551 -23.3419 -23.3419 -23.3366 -23.3366 -23.2961 -23.2961
   -23.2845 -23.2845 -23.2779 -23.2779 -10.1817 -10.1817 -10.0583 -10.0583
   -10.0026 -10.0026  -9.8182  -9.8182  -9.7984  -9.7984  -9.7748  -9.7748
    -7.1710  -7.1710  -7.1015  -7.1015  -6.9186  -6.9186  -6.6868  -6.6868
    -6.5796  -6.5796  -6.4704  -6.4704   5.0452   5.0452   5.2515   5.2515
     5.3747   5.3747   5.5040   5.5040   6.1123   6.1123   6.2966   6.2966
     6.4445   6.4445   6.5377   6.5377   6.6657   6.6657   6.7315   6.7315
     7.3593   7.3593   7.7341   7.7341   8.0854   8.0854   8.1382   8.1382
     8.2342   8.2342   8.3762   8.3762   8.5774   8.5774   8.9271   8.9271
    12.0490  12.0490  12.7529  12.7529  12.7961  12.7961  13.0332  13.0332
    13.0518  13.0518  13.3306  13.3306  14.6336  14.6336  15.1680  15.1681

          k =-0.5000 0.2458-0.3517 (  9016 PWs)   bands (ev):

   -47.0282 -47.0282 -47.0282 -47.0282 -28.7214 -28.7214 -28.7188 -28.7188
   -23.3442 -23.3442 -23.3438 -23.3438 -23.3197 -23.3197 -23.3195 -23.3195
   -23.2826 -23.2826 -23.2825 -23.2825 -10.1304 -10.1304 -10.1107 -10.1107
    -9.9527  -9.9527  -9.8621  -9.8621  -9.8013  -9.8013  -9.7822  -9.7822
    -7.1379  -7.1379  -7.0500  -7.0500  -6.8492  -6.8492  -6.7623  -6.7623
    -6.6298  -6.6298  -6.5065  -6.5065   5.2155   5.2155   5.2188   5.2188
     5.5882   5.5882   5.7876   5.7876   5.9888   5.9888   6.0702   6.0702
     6.2577   6.2577   6.5035   6.5035   6.6749   6.6749   6.6811   6.6811
     7.2904   7.2904   7.5300   7.5300   8.0696   8.0696   8.1643   8.1643
     8.2909   8.2909   8.4488   8.4488   8.6912   8.6912   8.8183   8.8183
    12.4756  12.4756  12.5151  12.5151  12.8743  12.8743  12.9168  12.9168
    13.0998  13.0998  13.1533  13.1533  14.9825  14.9825  15.0107  15.0107

          k =-0.5000-0.4917 0.0000 (  8988 PWs)   bands (ev):

   -47.0292 -47.0292 -47.0272 -47.0272 -28.7247 -28.7247 -28.7156 -28.7156
   -23.3667 -23.3667 -23.3530 -23.3530 -23.3479 -23.3479 -23.2841 -23.2841
   -23.2736 -23.2736 -23.2662 -23.2662 -10.2792 -10.2792 -10.0659 -10.0659
   -10.0200 -10.0200  -9.7800  -9.7800  -9.7619  -9.7619  -9.7332  -9.7332
    -7.2481  -7.2481  -7.1037  -7.1037  -6.9725  -6.9725  -6.7608  -6.7608
    -6.3979  -6.3979  -6.3793  -6.3793   4.7872   4.7872   4.9818   4.9818
     5.0854   5.0854   5.2785   5.2785   6.5520   6.5520   6.6070   6.6070
     6.7351   6.7351   6.8175   6.8175   6.8404   6.8404   7.2495   7.2495
     7.2730   7.2730   7.2736   7.2736   7.6236   7.6236   7.7892   7.7892
     7.9831   7.9831   8.7596   8.7596   8.7611   8.7611   9.0051   9.0051
    11.5762  11.5762  12.7635  12.7635  12.8279  12.8279  13.0048  13.0048
    13.2243  13.2243  13.5002  13.5002  14.3640  14.3640  14.9002  14.9002

          k =-0.5000-0.4917 0.1759 (  9032 PWs)   bands (ev):

   -47.0289 -47.0289 -47.0275 -47.0275 -28.7234 -28.7234 -28.7169 -28.7169
   -23.3597 -23.3597 -23.3533 -23.3533 -23.3431 -23.3431 -23.2938 -23.2938
   -23.2730 -23.2730 -23.2687 -23.2687 -10.2499 -10.2499 -10.0992 -10.0992
    -9.9854  -9.9854  -9.8156  -9.8156  -9.7584  -9.7584  -9.7384  -9.7384
    -7.2148  -7.2148  -7.0841  -7.0841  -6.9478  -6.9478  -6.7384  -6.7384
    -6.4516  -6.4516  -6.4334  -6.4334   4.9474   4.9474   5.0782   5.0782
     5.1074   5.1074   5.4213   5.4213   6.1891   6.1891   6.4499   6.4499
     6.6267   6.6267   6.7146   6.7146   6.9145   6.9145   7.1215   7.1215
     7.1946   7.1946   7.5681   7.5681   7.7886   7.7886   7.8707   7.8707
     8.2309   8.2309   8.4594   8.4594   8.5684   8.5684   8.9673   8.9673
    11.8475  11.8475  12.7497  12.7497  12.8464  12.8464  12.9836  12.9836
    13.2303  13.2303  13.4255  13.4255  14.4520  14.4520  14.8535  14.8535

          k =-0.5000-0.4917-0.3517 (  9016 PWs)   bands (ev):

   -47.0282 -47.0282 -47.0282 -47.0282 -28.7201 -28.7201 -28.7201 -28.7201
   -23.3544 -23.3544 -23.3544 -23.3544 -23.3201 -23.3201 -23.3201 -23.3201
   -23.2714 -23.2714 -23.2714 -23.2714 -10.1766 -10.1766 -10.1766 -10.1766
    -9.9010  -9.9010  -9.9010  -9.9010  -9.7491  -9.7491  -9.7491  -9.7491
    -7.1378  -7.1378  -7.1378  -7.1378  -6.7995  -6.7995  -6.7995  -6.7995
    -6.5015  -6.5015  -6.5015  -6.5015   5.0959   5.0959   5.0959   5.0959
     5.4606   5.4606   5.4606   5.4606   5.9812   5.9812   5.9812   5.9812
     6.6631   6.6631   6.6631   6.6631   7.0364   7.0364   7.0364   7.0364
     7.3277   7.3277   7.3277   7.3277   8.0210   8.0210   8.0210   8.0210
     8.2178   8.2178   8.2178   8.2178   8.7286   8.7286   8.7286   8.7286
    12.3925  12.3925  12.3925  12.3925  12.9115  12.9115  12.9115  12.9115
    13.2915  13.2915  13.2915  13.2915  14.6955  14.6955  14.6955  14.6955

     the Fermi energy is     9.9359 ev

!    total energy              =   -1513.98366979 Ry
     estimated scf accuracy    <          6.7E-09 Ry
     smearing contrib. (-TS)   =      -0.00000000 Ry
     internal energy E=F+TS    =   -1513.98366979 Ry

     The total energy is F=E-TS. E is the sum of the following terms:
     one-electron contribution =    -323.24979750 Ry
     hartree contribution      =     249.21834351 Ry
     xc contribution           =    -211.00789822 Ry
     ewald contribution        =    -874.82826118 Ry
     one-center paw contrib.   =    -354.11605640 Ry

     convergence has been achieved in  13 iterations

     negative rho (up, down):  4.634E-03 0.000E+00

     Forces acting on atoms (cartesian axes, Ry/au):

     atom    1 type  1   force =    -0.00058899   -0.00086861   -0.00000000
     atom    2 type  1   force =     0.00058899    0.00086861    0.00000000
     atom    3 type  1   force =     0.00058899   -0.00086861    0.00000000
     atom    4 type  1   force =    -0.00058899    0.00086861    0.00000000
     atom    5 type  2   force =    -0.00000000    0.00000000    0.00000000
     atom    6 type  2   force =     0.00000000    0.00000000    0.00000000
     atom    7 type  2   force =     0.00000000    0.00000000    0.00000000
     atom    8 type  2   force =     0.00000000   -0.00000000   -0.00000000
     atom    9 type  3   force =     0.00189610   -0.00064834    0.00000000
     atom   10 type  3   force =    -0.00189610    0.00064834    0.00000000
     atom   11 type  3   force =    -0.00189610   -0.00064834    0.00000000
     atom   12 type  3   force =     0.00189610    0.00064834    0.00000000
     atom   13 type  3   force =     0.00082683    0.00135679   -0.00182847
     atom   14 type  3   force =    -0.00082683   -0.00135679   -0.00182847
     atom   15 type  3   force =    -0.00082683   -0.00135679    0.00182847
     atom   16 type  3   force =     0.00082683    0.00135679    0.00182847
     atom   17 type  3   force =    -0.00082683    0.00135679   -0.00182847
     atom   18 type  3   force =     0.00082683   -0.00135679   -0.00182847
     atom   19 type  3   force =     0.00082683   -0.00135679    0.00182847
     atom   20 type  3   force =    -0.00082683    0.00135679    0.00182847

     Total force =     0.008210     Total SCF correction =     0.000095


     Computing stress (Cartesian axis) and pressure


     negative rho (up, down):  4.634E-03 0.000E+00
          total   stress  (Ry/bohr**3)                   (kbar)     P=       30.19
   0.00019673   0.00000000   0.00000000           28.94        0.00        0.00
   0.00000000   0.00020873   0.00000000            0.00       30.71        0.00
   0.00000000   0.00000000   0.00021029            0.00        0.00       30.94


     BFGS Geometry Optimization
     Energy error            =      0.0E+00
     Gradient error          =      1.9E-03
     Cell gradient error     =      2.1E-04


     number of scf cycles    =   1
     number of bfgs steps    =   0

     enthalpy new            =   -1513.9836697932 Ry

     new trust radius        =       0.0408898674 bohr
     new conv_thr            =       0.0000000100 Ry

     new unit-cell volume =   1535.69970 a.u.^3 (   227.56722 Ang^3 )
     density =      3.96783 g/cm^3

CELL_PARAMETERS (angstrom)
   5.398469583   0.000000000   0.000000000
   0.000000000   5.491303049   0.000000000
   0.000000000   0.000000000   7.676506621

ATOMIC_POSITIONS (angstrom)
Ca            2.7478690179        2.9780072705        5.7573799658
Ca            2.6506005648        2.5132957782        1.9191266553
Ca            5.3498353561        0.2323557462        5.7573799658
Ca            0.0486342266        5.2589473026        1.9191266553
Ti           -0.0000000000        2.7456515244        3.8382533105
Ti            0.0000000000        2.7456515244        0.0000000000
Ti            2.6992347913        0.0000000000        3.8382533105
Ti            2.6992347913       -0.0000000000       -0.0000000000
O             0.4155087957        2.6427709476        5.7573799658
O             4.9829607869        2.8485321012        1.9191266553
O             2.2837259956        5.3884224719        5.7573799658
O             3.1147435871        0.1028805768        1.9191266553
O             4.2668163022        4.3367302847        7.3672552721
O             1.1316532804        1.1545727641        3.5290019615
O             1.1316532804        1.1545727641        0.3092513490
O             4.2668163022        4.3367302847        4.1475046595
O             3.8308880718        1.5910787603        7.3672552721
O             1.5675815109        3.9002242884        3.5290019615
O             1.5675815109        3.9002242884        0.3092513490
O             3.8308880718        1.5910787603        4.1475046595



     Writing output data file ./out/CaO3Ti.save/
     NEW-OLD atomic charge density approx. for the potential

     Check: negative core charge=   -0.000006

     negative rho (up, down):  4.644E-03 0.000E+00
     extrapolated charge  162.37670, renormalised to  160.00000

     total cpu time spent up to now is     1624.4 secs

     Self-consistent Calculation

     iteration #  1     ecut=    50.00 Ry     beta= 0.30
     Davidson diagonalization with overlap
     c_bands:  1 eigenvalues not converged
     c_bands:  1 eigenvalues not converged
     c_bands:  2 eigenvalues not converged
     c_bands:  1 eigenvalues not converged
     c_bands:  2 eigenvalues not converged
     c_bands:  2 eigenvalues not converged
     c_bands:  2 eigenvalues not converged
     c_bands:  1 eigenvalues not converged
     c_bands:  2 eigenvalues not converged
     c_bands:  1 eigenvalues not converged
     c_bands:  2 eigenvalues not converged
     ethr =  1.00E-06,  avg # of iterations = 18.1

     negative rho (up, down):  5.133E-03 0.000E+00

     total cpu time spent up to now is     1996.4 secs

     total energy              =   -1513.88256966 Ry
     estimated scf accuracy    <       0.09755920 Ry

     iteration #  2     ecut=    50.00 Ry     beta= 0.30
     Davidson diagonalization with overlap
     ethr =  6.10E-05,  avg # of iterations =  9.7

     negative rho (up, down):  4.813E-03 0.000E+00

     total cpu time spent up to now is     2158.5 secs

     total energy              =   -1513.98658084 Ry
     estimated scf accuracy    <       0.08389774 Ry

     iteration #  3     ecut=    50.00 Ry     beta= 0.30
     Davidson diagonalization with overlap
     ethr =  5.24E-05,  avg # of iterations =  1.7

     negative rho (up, down):  4.748E-03 0.000E+00

     total cpu time spent up to now is     2238.8 secs

     total energy              =   -1513.98936380 Ry
     estimated scf accuracy    <       0.01857400 Ry

     iteration #  4     ecut=    50.00 Ry     beta= 0.30
     Davidson diagonalization with overlap
     ethr =  1.16E-05,  avg # of iterations =  2.5

     negative rho (up, down):  4.631E-03 0.000E+00

     total cpu time spent up to now is     2323.8 secs

     total energy              =   -1513.98573976 Ry
     estimated scf accuracy    <       0.01154038 Ry

     iteration #  5     ecut=    50.00 Ry     beta= 0.30
     Davidson diagonalization with overlap
     ethr =  7.21E-06,  avg # of iterations =  4.2

     negative rho (up, down):  4.605E-03 0.000E+00

     total cpu time spent up to now is     2418.1 secs

     total energy              =   -1513.98641343 Ry
     estimated scf accuracy    <       0.00278038 Ry

     iteration #  6     ecut=    50.00 Ry     beta= 0.30
     Davidson diagonalization with overlap
     ethr =  1.74E-06,  avg # of iterations =  9.1

     negative rho (up, down):  4.589E-03 0.000E+00

     total cpu time spent up to now is     2531.2 secs

     total energy              =   -1513.98639813 Ry
     estimated scf accuracy    <       0.00139472 Ry

     iteration #  7     ecut=    50.00 Ry     beta= 0.30
     Davidson diagonalization with overlap
     ethr =  8.72E-07,  avg # of iterations =  2.3

     negative rho (up, down):  4.498E-03 0.000E+00

     total cpu time spent up to now is     2614.0 secs

     total energy              =   -1513.98577177 Ry
     estimated scf accuracy    <       0.00079182 Ry

     iteration #  8     ecut=    50.00 Ry     beta= 0.30
     Davidson diagonalization with overlap
     ethr =  4.95E-07,  avg # of iterations =  5.1

     negative rho (up, down):  4.522E-03 0.000E+00

     total cpu time spent up to now is     2747.8 secs

     total energy              =   -1513.98615049 Ry
     estimated scf accuracy    <       0.00030739 Ry

     iteration #  9     ecut=    50.00 Ry     beta= 0.30
     Davidson diagonalization with overlap
     ethr =  1.92E-07,  avg # of iterations =  2.0

     negative rho (up, down):  4.533E-03 0.000E+00

     total cpu time spent up to now is     2804.3 secs

     total energy              =   -1513.98614992 Ry
     estimated scf accuracy    <       0.00006979 Ry

     iteration # 10     ecut=    50.00 Ry     beta= 0.30
     Davidson diagonalization with overlap
     ethr =  4.36E-08,  avg # of iterations =  3.0

     negative rho (up, down):  4.533E-03 0.000E+00

     total cpu time spent up to now is     2863.3 secs

     total energy              =   -1513.98616112 Ry
     estimated scf accuracy    <       0.00001241 Ry

     iteration # 11     ecut=    50.00 Ry     beta= 0.30
     Davidson diagonalization with overlap
     ethr =  7.76E-09,  avg # of iterations =  4.6

     negative rho (up, down):  4.534E-03 0.000E+00

     total cpu time spent up to now is     2938.1 secs

     total energy              =   -1513.98616464 Ry
     estimated scf accuracy    <       0.00000269 Ry

     iteration # 12     ecut=    50.00 Ry     beta= 0.30
     Davidson diagonalization with overlap
     ethr =  1.68E-09,  avg # of iterations =  2.8

     negative rho (up, down):  4.534E-03 0.000E+00

     total cpu time spent up to now is     2999.5 secs

     total energy              =   -1513.98616522 Ry
     estimated scf accuracy    <       0.00000027 Ry

     iteration # 13     ecut=    50.00 Ry     beta= 0.30
     Davidson diagonalization with overlap
     ethr =  1.67E-10,  avg # of iterations =  5.0

     negative rho (up, down):  4.534E-03 0.000E+00

     total cpu time spent up to now is     3081.1 secs

     total energy              =   -1513.98616543 Ry
     estimated scf accuracy    <       0.00000022 Ry

     iteration # 14     ecut=    50.00 Ry     beta= 0.30
     Davidson diagonalization with overlap
     ethr =  1.37E-10,  avg # of iterations =  2.0

     negative rho (up, down):  4.533E-03 0.000E+00

     total cpu time spent up to now is     3132.2 secs

     total energy              =   -1513.98616520 Ry
     estimated scf accuracy    <       0.00000043 Ry

     iteration # 15     ecut=    50.00 Ry     beta= 0.30
     Davidson diagonalization with overlap
     ethr =  1.37E-10,  avg # of iterations =  2.4

     negative rho (up, down):  4.533E-03 0.000E+00

     total cpu time spent up to now is     3192.2 secs

     total energy              =   -1513.98616528 Ry
     estimated scf accuracy    <       0.00000002 Ry

     iteration # 16     ecut=    50.00 Ry     beta= 0.30
     Davidson diagonalization with overlap
     ethr =  1.53E-11,  avg # of iterations =  5.1

     negative rho (up, down):  4.533E-03 0.000E+00

     total cpu time spent up to now is     3270.1 secs

     End of self-consistent calculation

          k = 0.0000 0.0000 0.0000 (  9061 PWs)   bands (ev):

   -47.3064 -47.3045 -47.3028 -47.3010 -28.9962 -28.9895 -28.9790 -28.9723
   -23.6249 -23.6217 -23.6142 -23.6107 -23.6062 -23.5991 -23.5531 -23.5464
   -23.5435 -23.5396 -23.5373 -23.5298 -10.4630 -10.3159 -10.2973 -10.2581
   -10.2383 -10.1643 -10.0623 -10.0561 -10.0325 -10.0242 -10.0237  -9.9927
    -8.2085  -7.4097  -7.2983  -7.1020  -7.0645  -7.0342  -6.9607  -6.8136
    -6.7768  -6.7645  -6.5843  -6.5268   4.6460   4.8256   4.8427   4.8544
     5.1074   5.1505   5.2228   5.2363   5.2548   5.2656   6.1150   6.3625
     6.4063   6.5021   6.6055   6.6819   6.6945   6.7431   6.8076   6.9298
     7.0075   7.5024   7.5324   7.5708   7.9913   8.1213   8.1897   8.5387
     8.5401   8.5476   8.6037   8.6093   8.7536   8.7691   8.8170   8.8278
    11.2283  11.2343  11.3079  11.4419  12.4998  12.5036  12.8356  12.8447
    12.8770  12.9333  13.1869  13.4218  14.0229  14.0364  14.0995  14.5981

          k = 0.0000 0.0000 0.1750 (  9040 PWs)   bands (ev):

   -47.3061 -47.3048 -47.3025 -47.3012 -28.9952 -28.9904 -28.9780 -28.9733
   -23.6185 -23.6147 -23.6113 -23.6103 -23.6072 -23.5942 -23.5620 -23.5505
   -23.5460 -23.5437 -23.5367 -23.5321 -10.4143 -10.3034 -10.2934 -10.2643
   -10.2509 -10.1364 -10.1316 -10.0529 -10.0319 -10.0313 -10.0253 -10.0143
    -8.0866  -7.4665  -7.3281  -7.0934  -7.0803  -7.0001  -6.9280  -6.8633
    -6.7781  -6.7348  -6.6204  -6.5666   4.7314   4.8523   4.9108   5.0530
     5.1370   5.1699   5.2128   5.3265   5.3523   5.3576   6.0556   6.1828
     6.2160   6.3641   6.3824   6.4839   6.5382   6.9309   7.0174   7.0993
     7.1091   7.1814   7.7617   7.8590   7.9407   7.9612   8.0232   8.3093
     8.5454   8.5735   8.5996   8.6468   8.6534   8.6759   8.7491   8.7776
    11.3206  11.3220  11.5054  11.6071  12.4227  12.5628  12.6527  12.8466
    12.8972  13.0791  13.1755  13.3157  14.0249  14.0358  14.1927  14.9189

          k = 0.0000 0.0000-0.3499 (  9076 PWs)   bands (ev):

   -47.3054 -47.3054 -47.3019 -47.3019 -28.9928 -28.9928 -28.9757 -28.9757
   -23.6127 -23.6127 -23.6105 -23.6105 -23.5859 -23.5859 -23.5747 -23.5747
   -23.5449 -23.5449 -23.5350 -23.5350 -10.2967 -10.2967 -10.2798 -10.2798
   -10.2634 -10.2634 -10.0749 -10.0749 -10.0425 -10.0425 -10.0283 -10.0283
    -7.7914  -7.7914  -7.1515  -7.1515  -7.0380  -7.0380  -6.9390  -6.9390
    -6.6985  -6.6985  -6.6560  -6.6560   4.8890   4.8890   4.9588   4.9588
     5.1755   5.1755   5.4574   5.4574   5.6654   5.6654   5.8556   5.8556
     5.9971   5.9971   6.4550   6.4550   6.4729   6.4729   7.3300   7.3300
     7.4780   7.4780   7.5375   7.5375   7.6102   7.6102   8.3967   8.3967
     8.4610   8.4610   8.5813   8.5813   8.6320   8.6320   8.7257   8.7257
    11.3396  11.3396  12.0441  12.0441  12.1418  12.1418  12.7157  12.7157
    13.0517  13.0517  13.1868  13.1868  14.0301  14.0301  14.6862  14.6862

          k = 0.0000 0.2446 0.0000 (  9021 PWs)   bands (ev):

   -47.3058 -47.3040 -47.3033 -47.3015 -28.9939 -28.9867 -28.9818 -28.9746
   -23.6225 -23.6214 -23.6045 -23.6009 -23.5969 -23.5919 -23.5565 -23.5564
   -23.5533 -23.5469 -23.5402 -23.5360 -10.4087 -10.3037 -10.2886 -10.2289
   -10.2095 -10.1973 -10.1184 -10.0994 -10.0652 -10.0545 -10.0528 -10.0031
    -7.9842  -7.3666  -7.2538  -7.0779  -7.0472  -7.0422  -6.8892  -6.8880
    -6.8058  -6.7834  -6.7040  -6.6046   4.8845   4.8873   4.9648   5.1077
     5.2566   5.2950   5.3259   5.3822   5.4542   5.4979   5.9161   6.0026
     6.0874   6.3140   6.3765   6.4196   6.4676   6.5737   6.8986   7.3025
     7.4718   7.5805   7.6842   7.7499   7.7659   7.8045   7.9047   8.0453
     8.1643   8.3379   8.3530   8.4084   8.5364   8.7170   8.7460   8.7573
    11.5147  11.5689  11.7856  11.8421  12.5072  12.5867  12.6833  12.8696
    12.9588  12.9842  13.0858  13.2821  14.1284  14.2061  14.2652  14.5052

          k = 0.0000 0.2446 0.1750 (  9038 PWs)   bands (ev):

   -47.3056 -47.3042 -47.3031 -47.3017 -28.9929 -28.9878 -28.9807 -28.9756
   -23.6142 -23.6113 -23.6037 -23.6015 -23.5979 -23.5891 -23.5635 -23.5560
   -23.5540 -23.5505 -23.5463 -23.5402 -10.3669 -10.2947 -10.2759 -10.2437
   -10.2203 -10.1624 -10.1447 -10.0951 -10.0819 -10.0659 -10.0645 -10.0283
    -7.8846  -7.3776  -7.2858  -7.0735  -7.0330  -7.0010  -6.9023  -6.8942
    -6.8198  -6.7810  -6.7603  -6.6434   4.9421   5.0788   5.0933   5.2088
     5.3091   5.3304   5.3904   5.3929   5.5064   5.5092   5.9662   6.0223
     6.0238   6.2407   6.2900   6.3024   6.3880   6.5262   6.6033   7.0690
     7.3957   7.4454   7.6659   7.8151   7.8864   7.9083   7.9876   8.0135
     8.2004   8.2894   8.3398   8.3635   8.5906   8.6330   8.7021   8.7370
    11.6809  11.7569  11.8024  11.8599  12.5235  12.5817  12.6877  12.7486
    12.9834  13.0320  13.0636  13.1371  14.2158  14.2581  14.3056  14.8331

          k = 0.0000 0.2446-0.3499 (  9052 PWs)   bands (ev):

   -47.3049 -47.3049 -47.3024 -47.3024 -28.9903 -28.9903 -28.9782 -28.9782
   -23.6029 -23.6029 -23.6020 -23.6020 -23.5859 -23.5859 -23.5740 -23.5740
   -23.5548 -23.5548 -23.5445 -23.5445 -10.2700 -10.2700 -10.2675 -10.2675
   -10.2368 -10.2368 -10.0956 -10.0956 -10.0796 -10.0796 -10.0796 -10.0796
    -7.6401  -7.6401  -7.1013  -7.1013  -7.0225  -7.0225  -6.9262  -6.9262
    -6.8191  -6.8191  -6.7239  -6.7239   5.0611   5.0611   5.3078   5.3078
     5.3593   5.3593   5.5208   5.5208   5.6755   5.6755   5.8650   5.8650
     6.0147   6.0147   6.2125   6.2125   6.3565   6.3565   6.9144   6.9144
     6.9438   6.9438   7.6965   7.6965   8.0342   8.0342   8.1443   8.1443
     8.2193   8.2193   8.3884   8.3884   8.5621   8.5621   8.6837   8.6837
    11.8060  11.8060  12.1887  12.1887  12.2151  12.2151  12.8082  12.8082
    12.9230  12.9230  13.0249  13.0249  14.2380  14.2380  14.8954  14.8954

          k = 0.0000-0.4891 0.0000 (  9036 PWs)   bands (ev):

   -47.3046 -47.3046 -47.3027 -47.3027 -28.9881 -28.9881 -28.9804 -28.9804
   -23.6212 -23.6212 -23.5806 -23.5806 -23.5777 -23.5777 -23.5740 -23.5740
   -23.5701 -23.5701 -23.5407 -23.5407 -10.2922 -10.2922 -10.2730 -10.2730
   -10.1847 -10.1847 -10.1581 -10.1581 -10.1254 -10.1254 -10.0284 -10.0284
    -7.5432  -7.5432  -7.1250  -7.1250  -7.0353  -7.0353  -6.8956  -6.8956
    -6.8638  -6.8638  -6.7158  -6.7158   4.9462   4.9462   5.2898   5.2898
     5.3694   5.3694   5.6786   5.6786   5.7548   5.7548   5.9173   5.9173
     6.0487   6.0487   6.3147   6.3147   6.4435   6.4435   6.5142   6.5142
     7.3126   7.3126   7.5242   7.5242   7.7442   7.7442   8.0570   8.0570
     8.1947   8.1947   8.3103   8.3103   8.4280   8.4280   8.6393   8.6393
    12.0525  12.0525  12.1728  12.1728  12.5002  12.5002  12.6312  12.6312
    12.8112  12.8112  13.0544  13.0544  14.2903  14.2903  15.1619  15.1621

          k = 0.0000-0.4891 0.1750 (  9032 PWs)   bands (ev):

   -47.3043 -47.3043 -47.3030 -47.3030 -28.9870 -28.9870 -28.9816 -28.9816
   -23.6111 -23.6111 -23.5800 -23.5800 -23.5786 -23.5786 -23.5755 -23.5755
   -23.5692 -23.5692 -23.5500 -23.5500 -10.2752 -10.2752 -10.2501 -10.2501
   -10.1794 -10.1794 -10.1594 -10.1594 -10.1415 -10.1415 -10.0605 -10.0605
    -7.4701  -7.4701  -7.1587  -7.1587  -6.9934  -6.9934  -6.9156  -6.9156
    -6.8766  -6.8766  -6.7715  -6.7715   5.1059   5.1059   5.3512   5.3512
     5.5058   5.5058   5.6641   5.6641   5.8536   5.8536   5.8874   5.8874
     6.1010   6.1010   6.2465   6.2465   6.3482   6.3482   6.4704   6.4704
     6.8660   6.8660   7.1981   7.1981   8.0500   8.0500   8.1639   8.1639
     8.2767   8.2767   8.3291   8.3291   8.3724   8.3724   8.6240   8.6240
    12.1561  12.1561  12.2697  12.2697  12.5159  12.5159  12.6122  12.6122
    12.7956  12.7956  12.8816  12.8816  14.5811  14.5812  15.1795  15.1819

          k = 0.0000-0.4891-0.3499 (  8992 PWs)   bands (ev):

   -47.3036 -47.3036 -47.3036 -47.3036 -28.9843 -28.9843 -28.9843 -28.9843
   -23.5890 -23.5890 -23.5890 -23.5890 -23.5786 -23.5786 -23.5786 -23.5786
   -23.5648 -23.5648 -23.5648 -23.5648 -10.2396 -10.2396 -10.2396 -10.2396
   -10.1671 -10.1671 -10.1671 -10.1671 -10.1284 -10.1284 -10.1284 -10.1284
    -7.2984  -7.2984  -7.2984  -7.2984  -6.9174  -6.9174  -6.9174  -6.9174
    -6.8807  -6.8807  -6.8807  -6.8807   5.3394   5.3394   5.3394   5.3394
     5.6856   5.6856   5.6856   5.6856   5.8877   5.8877   5.8877   5.8877
     6.2845   6.2845   6.2845   6.2845   6.4067   6.4067   6.4067   6.4067
     6.5104   6.5104   6.5104   6.5104   8.2059   8.2059   8.2059   8.2059
     8.3085   8.3085   8.3085   8.3085   8.5480   8.5480   8.5480   8.5480
    12.4546  12.4546  12.4546  12.4546  12.5469  12.5469  12.5469  12.5469
    12.5944  12.5944  12.5944  12.5944  15.2029  15.2030  15.2031  15.2032

          k = 0.2488 0.0000 0.0000 (  9031 PWs)   bands (ev):

   -47.3058 -47.3040 -47.3033 -47.3015 -28.9939 -28.9870 -28.9814 -28.9745
   -23.6227 -23.6216 -23.6040 -23.6013 -23.5966 -23.5922 -23.5563 -23.5560
   -23.5537 -23.5473 -23.5402 -23.5359 -10.4119 -10.3505 -10.2773 -10.2108
   -10.2048 -10.1994 -10.1732 -10.1033 -10.0440 -10.0413 -10.0360  -9.9993
    -7.9632  -7.3716  -7.2482  -7.0506  -7.0476  -7.0421  -6.9145  -6.8469
    -6.8465  -6.7583  -6.6701  -6.6410   4.8730   4.8954   4.9012   5.1214
     5.1483   5.2791   5.3247   5.3588   5.4623   5.5638   5.8406   5.8697
     6.2406   6.2891   6.3401   6.4563   6.5525   6.5812   6.8406   7.1734
     7.3877   7.5649   7.7112   7.7215   7.7760   7.9078   7.9465   8.1114
     8.1266   8.3195   8.4610   8.6160   8.6310   8.6560   8.6796   8.7478
    11.5262  11.5561  11.7011  11.8036  12.5186  12.5798  12.6537  12.9017
    12.9593  12.9860  13.0720  13.2806  14.1028  14.2845  14.2935  14.5030

          k = 0.2488 0.0000 0.1750 (  9025 PWs)   bands (ev):

   -47.3056 -47.3042 -47.3031 -47.3017 -28.9929 -28.9880 -28.9805 -28.9756
   -23.6144 -23.6114 -23.6033 -23.6017 -23.5977 -23.5892 -23.5634 -23.5556
   -23.5542 -23.5505 -23.5466 -23.5401 -10.3728 -10.3328 -10.2800 -10.2260
   -10.2065 -10.1917 -10.1603 -10.1106 -10.0844 -10.0431 -10.0345 -10.0227
    -7.8659  -7.3708  -7.2883  -7.0534  -7.0362  -7.0020  -6.9119  -6.8670
    -6.8138  -6.8103  -6.7127  -6.6783   4.9320   4.9687   5.0520   5.1978
     5.3005   5.3712   5.3742   5.4098   5.4948   5.5160   5.8227   5.9325
     6.1452   6.2466   6.3035   6.3651   6.4417   6.4802   6.6414   7.0916
     7.2944   7.3660   7.6081   7.7099   7.8433   7.9559   8.0774   8.1163
     8.2198   8.3521   8.3817   8.4206   8.6315   8.6821   8.7137   8.7386
    11.7026  11.7037  11.7318  11.8451  12.5109  12.5842  12.7208  12.7215
    12.9792  13.0327  13.0547  13.1376  14.2526  14.2953  14.3246  14.8301

          k = 0.2488 0.0000-0.3499 (  9042 PWs)   bands (ev):

   -47.3049 -47.3049 -47.3024 -47.3024 -28.9904 -28.9904 -28.9781 -28.9781
   -23.6029 -23.6029 -23.6020 -23.6020 -23.5860 -23.5860 -23.5741 -23.5741
   -23.5548 -23.5548 -23.5445 -23.5445 -10.3056 -10.3056 -10.2646 -10.2646
   -10.2215 -10.2215 -10.1298 -10.1298 -10.0776 -10.0776 -10.0403 -10.0403
    -7.6267  -7.6267  -7.1057  -7.1057  -7.0139  -7.0139  -6.9192  -6.9192
    -6.8007  -6.8007  -6.7443  -6.7443   4.9854   4.9854   5.3204   5.3204
     5.3634   5.3634   5.4284   5.4284   5.7534   5.7534   5.8117   5.8117
     6.0187   6.0187   6.2674   6.2674   6.3811   6.3811   6.8962   6.8962
     6.9343   6.9343   7.5658   7.5658   7.9936   7.9936   8.1649   8.1649
     8.3073   8.3073   8.5133   8.5133   8.5753   8.5753   8.6939   8.6939
    11.7475  11.7475  12.1668  12.1668  12.2443  12.2443  12.8049  12.8049
    12.9112  12.9112  13.0227  13.0227  14.2908  14.2908  14.9128  14.9128

          k = 0.2488 0.2446 0.0000 (  9048 PWs)   bands (ev):

   -47.3055 -47.3037 -47.3036 -47.3018 -28.9924 -28.9853 -28.9832 -28.9761
   -23.6241 -23.6217 -23.6105 -23.6075 -23.5780 -23.5769 -23.5736 -23.5734
   -23.5494 -23.5402 -23.5399 -23.5327 -10.4100 -10.3673 -10.3078 -10.2702
   -10.2173 -10.1769 -10.1617 -10.1146 -10.0447 -10.0274 -10.0097 -10.0047
    -7.7873  -7.3265  -7.3243  -7.1208  -7.1154  -6.9946  -6.9476  -6.8887
    -6.7328  -6.7088  -6.6888  -6.6652   4.8759   4.8912   4.9011   4.9521
     5.1472   5.2511   5.2565   5.5307   5.6545   5.7785   5.8301   5.9034
     6.1062   6.3859   6.4820   6.5577   6.6379   6.7756   6.8894   7.1040
     7.1716   7.4006   7.5404   7.5551   7.6299   7.7845   7.8473   7.9584
     8.0012   8.3584   8.3827   8.4805   8.4960   8.6166   8.6372   8.7531
    11.2962  12.0791  12.0848  12.1413  12.1439  12.5885  12.7116  12.7197
    12.9209  13.0296  13.0534  13.2365  14.0465  14.3559  14.3787  14.6542

          k = 0.2488 0.2446 0.1750 (  9030 PWs)   bands (ev):

   -47.3052 -47.3039 -47.3034 -47.3021 -28.9913 -28.9861 -28.9824 -28.9772
   -23.6178 -23.6115 -23.6110 -23.6030 -23.5792 -23.5762 -23.5749 -23.5725
   -23.5575 -23.5502 -23.5393 -23.5352 -10.3918 -10.3368 -10.2999 -10.2794
   -10.2000 -10.1820 -10.1558 -10.1253 -10.0834 -10.0356 -10.0248 -10.0086
    -7.7085  -7.3725  -7.2480  -7.0970  -7.0940  -7.0105  -6.9376  -6.9147
    -6.7789  -6.7348  -6.7220  -6.6951   4.9404   4.9700   5.0461   5.0536
     5.2763   5.3008   5.4329   5.5645   5.6393   5.7890   5.8279   5.9265
     6.1200   6.2481   6.2811   6.3327   6.4369   6.5698   6.9075   6.9881
     7.1896   7.3360   7.4264   7.5518   7.7521   7.8154   7.9691   8.0414
     8.2073   8.2618   8.2978   8.4329   8.4630   8.5385   8.5818   8.7337
    11.5627  12.0880  12.1140  12.1945  12.2625  12.5266  12.7414  12.7801
    12.8073  12.9569  13.0168  13.1516  14.1091  14.3325  14.6699  14.8077

          k = 0.2488 0.2446-0.3499 (  9028 PWs)   bands (ev):

   -47.3045 -47.3045 -47.3028 -47.3028 -28.9886 -28.9886 -28.9799 -28.9799
   -23.6127 -23.6127 -23.5889 -23.5889 -23.5845 -23.5845 -23.5730 -23.5730
   -23.5675 -23.5675 -23.5378 -23.5378 -10.3466 -10.3466 -10.2745 -10.2745
   -10.1844 -10.1844 -10.1522 -10.1522 -10.0920 -10.0920 -10.0175 -10.0175
    -7.5258  -7.5258  -7.0977  -7.0977  -7.0538  -7.0538  -6.9397  -6.9397
    -6.8310  -6.8310  -6.7153  -6.7153   4.9772   4.9772   5.2912   5.2912
     5.3799   5.3799   5.5880   5.5880   5.7427   5.7427   5.9787   5.9787
     5.9912   5.9912   6.2106   6.2106   6.3192   6.3192   6.7028   6.7028
     7.2374   7.2374   7.4746   7.4746   7.7713   7.7713   8.1032   8.1032
     8.2502   8.2502   8.3840   8.3840   8.4579   8.4579   8.6480   8.6480
    12.0794  12.0794  12.1379  12.1379  12.4700  12.4700  12.5902  12.5902
    12.8246  12.8246  13.0375  13.0375  14.2535  14.2535  15.2950  15.2985

          k = 0.2488-0.4891 0.0000 (  9042 PWs)   bands (ev):

   -47.3046 -47.3046 -47.3027 -47.3027 -28.9883 -28.9883 -28.9803 -28.9803
   -23.6226 -23.6226 -23.6016 -23.6016 -23.5995 -23.5995 -23.5533 -23.5533
   -23.5494 -23.5494 -23.5376 -23.5376 -10.4146 -10.4146 -10.2765 -10.2765
   -10.2562 -10.2562 -10.0710 -10.0710 -10.0344 -10.0344 -10.0322 -10.0322
    -7.4370  -7.4370  -7.3065  -7.3065  -7.1040  -7.1040  -6.8797  -6.8797
    -6.7170  -6.7170  -6.6575  -6.6575   4.8910   4.8910   4.9095   4.9095
     5.1169   5.1169   5.3024   5.3024   5.9376   5.9376   6.2422   6.2422
     6.3953   6.3953   6.4720   6.4720   6.5396   6.5396   7.0693   7.0693
     7.1441   7.1441   7.1765   7.1765   7.5849   7.5849   7.9823   7.9823
     8.1601   8.1601   8.2961   8.2961   8.3885   8.3885   8.6972   8.6972
    11.5804  11.5804  12.4724  12.4724  12.5212  12.5212  12.7476  12.7476
    12.8015  12.8015  13.1559  13.1559  14.1221  14.1221  14.8293  14.8293

          k = 0.2488-0.4891 0.1750 (  9016 PWs)   bands (ev):

   -47.3043 -47.3043 -47.3030 -47.3030 -28.9871 -28.9871 -28.9814 -28.9814
   -23.6138 -23.6138 -23.6020 -23.6020 -23.5974 -23.5974 -23.5594 -23.5594
   -23.5488 -23.5488 -23.5427 -23.5427 -10.3939 -10.3939 -10.2889 -10.2889
   -10.2328 -10.2328 -10.0773 -10.0773 -10.0580 -10.0580 -10.0388 -10.0388
    -7.3832  -7.3832  -7.2933  -7.2933  -7.0839  -7.0839  -6.8863  -6.8863
    -6.7676  -6.7676  -6.6948  -6.6948   4.9609   4.9609   5.1096   5.1096
     5.2164   5.2164   5.3305   5.3305   5.9527   5.9527   6.0888   6.0888
     6.2922   6.2922   6.4316   6.4316   6.5044   6.5044   6.6235   6.6235
     7.0803   7.0803   7.5548   7.5548   7.7826   7.7826   7.9073   7.9073
     8.0425   8.0425   8.2646   8.2646   8.3606   8.3606   8.6780   8.6780
    11.7791  11.7791  12.5004  12.5004  12.5097  12.5097  12.7234  12.7234
    12.8049  12.8049  13.0538  13.0538  14.2823  14.2823  14.7851  14.7851

          k = 0.2488-0.4891-0.3499 (  9016 PWs)   bands (ev):

   -47.3036 -47.3036 -47.3036 -47.3036 -28.9843 -28.9843 -28.9843 -28.9843
   -23.6040 -23.6040 -23.6040 -23.6040 -23.5812 -23.5812 -23.5812 -23.5812
   -23.5470 -23.5470 -23.5470 -23.5470 -10.3417 -10.3417 -10.3417 -10.3417
   -10.1534 -10.1534 -10.1534 -10.1534 -10.0520 -10.0520 -10.0520 -10.0520
    -7.3004  -7.3004  -7.3004  -7.3004  -6.9951  -6.9951  -6.9951  -6.9951
    -6.7628  -6.7628  -6.7628  -6.7628   5.1122   5.1122   5.1122   5.1122
     5.5196   5.5196   5.5196   5.5196   5.8482   5.8482   5.8482   5.8482
     6.1740   6.1740   6.1740   6.1740   6.5618   6.5618   6.5618   6.5618
     7.2535   7.2535   7.2535   7.2535   7.8288   7.8288   7.8288   7.8288
     8.2110   8.2110   8.2110   8.2110   8.5282   8.5282   8.5282   8.5282
    12.2246  12.2246  12.2246  12.2246  12.6025  12.6025  12.6025  12.6025
    12.8734  12.8734  12.8734  12.8734  14.6154  14.6154  14.6154  14.6154

          k =-0.4976 0.0000 0.0000 (  9022 PWs)   bands (ev):

   -47.3046 -47.3046 -47.3027 -47.3027 -28.9883 -28.9883 -28.9801 -28.9801
   -23.6215 -23.6215 -23.5796 -23.5796 -23.5784 -23.5784 -23.5734 -23.5734
   -23.5708 -23.5708 -23.5406 -23.5406 -10.3213 -10.3213 -10.3011 -10.3011
   -10.2062 -10.2062 -10.1473 -10.1473 -10.0886 -10.0886 -10.0176 -10.0176
    -7.4999  -7.4999  -7.1135  -7.1135  -7.0519  -7.0519  -6.9082  -6.9082
    -6.8604  -6.8604  -6.6997  -6.6997   4.9048   4.9048   5.1816   5.1816
     5.4275   5.4275   5.5832   5.5832   5.6789   5.6789   5.9689   5.9689
     6.0979   6.0979   6.1988   6.1988   6.2320   6.2320   6.8578   6.8578
     7.2333   7.2333   7.4582   7.4582   7.7890   7.7890   8.1744   8.1744
     8.3418   8.3418   8.3777   8.3777   8.4104   8.4104   8.5778   8.5778
    12.1138  12.1138  12.1376  12.1376  12.3985  12.3985  12.5413  12.5413
    12.8417  12.8417  13.0890  13.0890  14.2698  14.2698  15.3356  15.3449

          k =-0.4976 0.0000 0.1750 (  9036 PWs)   bands (ev):

   -47.3043 -47.3043 -47.3030 -47.3030 -28.9874 -28.9874 -28.9811 -28.9811
   -23.6114 -23.6114 -23.5794 -23.5794 -23.5789 -23.5789 -23.5753 -23.5753
   -23.5697 -23.5697 -23.5499 -23.5499 -10.3040 -10.3040 -10.2801 -10.2801
   -10.2168 -10.2168 -10.1428 -10.1428 -10.1002 -10.1002 -10.0424 -10.0424
    -7.4290  -7.4290  -7.1353  -7.1353  -7.0200  -7.0200  -6.9276  -6.9276
    -6.8794  -6.8794  -6.7499  -6.7499   5.0024   5.0024   5.3179   5.3179
     5.5069   5.5069   5.5833   5.5833   5.7775   5.7775   5.9790   5.9790
     6.1176   6.1176   6.1296   6.1296   6.2599   6.2599   6.6817   6.6817
     6.8431   6.8431   7.2137   7.2137   7.9805   7.9805   8.1420   8.1420
     8.3812   8.3812   8.4360   8.4360   8.4647   8.4647   8.6043   8.6043
    12.2255  12.2255  12.2280  12.2280  12.4121  12.4121  12.5187  12.5187
    12.8243  12.8243  12.9128  12.9128  14.5728  14.5729  15.3473  15.3527

          k =-0.4976 0.0000-0.3499 (  9028 PWs)   bands (ev):

   -47.3036 -47.3036 -47.3036 -47.3036 -28.9859 -28.9859 -28.9826 -28.9826
   -23.5893 -23.5893 -23.5890 -23.5890 -23.5785 -23.5785 -23.5784 -23.5784
   -23.5649 -23.5649 -23.5647 -23.5647 -10.2690 -10.2690 -10.2664 -10.2664
   -10.2327 -10.2327 -10.1282 -10.1282 -10.1220 -10.1220 -10.0720 -10.0720
    -7.2850  -7.2850  -7.2382  -7.2382  -6.9502  -6.9502  -6.9502  -6.9502
    -6.9192  -6.9192  -6.8057  -6.8057   5.2010   5.2010   5.2113   5.2113
     5.5845   5.5845   5.7914   5.7914   5.9580   5.9580   5.9746   5.9746
     6.1940   6.1940   6.2086   6.2086   6.3678   6.3678   6.4261   6.4261
     6.5470   6.5470   6.5704   6.5704   8.0250   8.0250   8.3135   8.3135
     8.3469   8.3469   8.4679   8.4679   8.5705   8.5705   8.6021   8.6021
    12.4182  12.4182  12.4508  12.4508  12.4679  12.4679  12.5379  12.5379
    12.5785  12.5785  12.6202  12.6202  15.3116  15.3117  15.3255  15.3264

          k =-0.4976 0.2446 0.0000 (  9022 PWs)   bands (ev):

   -47.3046 -47.3046 -47.3027 -47.3027 -28.9884 -28.9884 -28.9801 -28.9801
   -23.6228 -23.6228 -23.6016 -23.6016 -23.5994 -23.5994 -23.5534 -23.5534
   -23.5494 -23.5494 -23.5375 -23.5375 -10.4267 -10.4267 -10.2814 -10.2814
   -10.2624 -10.2624 -10.0690 -10.0690 -10.0291 -10.0291 -10.0263 -10.0263
    -7.4085  -7.4085  -7.3046  -7.3046  -7.1173  -7.1173  -6.8809  -6.8809
    -6.7195  -6.7195  -6.6484  -6.6484   4.8531   4.8531   4.8797   4.8797
     5.1145   5.1145   5.3032   5.3032   6.0311   6.0311   6.2266   6.2266
     6.2280   6.2280   6.4205   6.4205   6.5024   6.5024   7.0916   7.0916
     7.1614   7.1614   7.2366   7.2366   7.8490   7.8490   7.9823   7.9823
     7.9973   7.9973   8.3142   8.3142   8.3756   8.3756   8.7340   8.7340
    11.5907  11.5907  12.4787  12.4787  12.4863  12.4863  12.7578  12.7578
    12.7766  12.7766  13.1442  13.1442  14.1244  14.1244  14.8606  14.8606

          k =-0.4976 0.2446 0.1750 (  9002 PWs)   bands (ev):

   -47.3043 -47.3043 -47.3030 -47.3030 -28.9873 -28.9873 -28.9812 -28.9812
   -23.6140 -23.6140 -23.6020 -23.6020 -23.5973 -23.5973 -23.5595 -23.5595
   -23.5488 -23.5488 -23.5427 -23.5427 -10.4051 -10.4051 -10.2940 -10.2940
   -10.2431 -10.2431 -10.0720 -10.0720 -10.0540 -10.0540 -10.0312 -10.0312
    -7.3625  -7.3625  -7.2834  -7.2834  -7.0946  -7.0946  -6.8829  -6.8829
    -6.7833  -6.7833  -6.6801  -6.6801   4.8960   4.8960   5.0875   5.0875
     5.2144   5.2144   5.3438   5.3438   5.9474   5.9474   6.1287   6.1287
     6.2767   6.2767   6.3663   6.3663   6.4944   6.4944   6.5591   6.5591
     7.1592   7.1592   7.5448   7.5448   7.8965   7.8965   7.9459   7.9459
     8.0381   8.0381   8.1826   8.1826   8.3761   8.3761   8.7210   8.7210
    11.7870  11.7870  12.4728  12.4728  12.5144  12.5144  12.7452  12.7452
    12.7634  12.7634  13.0372  13.0372  14.2968  14.2968  14.8218  14.8218

          k =-0.4976 0.2446-0.3499 (  9016 PWs)   bands (ev):

   -47.3036 -47.3036 -47.3036 -47.3036 -28.9854 -28.9854 -28.9831 -28.9831
   -23.6042 -23.6042 -23.6038 -23.6038 -23.5813 -23.5813 -23.5812 -23.5812
   -23.5470 -23.5470 -23.5470 -23.5470 -10.3587 -10.3587 -10.3414 -10.3414
   -10.1961 -10.1961 -10.1132 -10.1132 -10.0567 -10.0567 -10.0380 -10.0380
    -7.3229  -7.3229  -7.2434  -7.2434  -7.0338  -7.0338  -6.9519  -6.9519
    -6.8285  -6.8285  -6.7139  -6.7139   5.0537   5.0537   5.0610   5.0610
     5.4299   5.4299   5.6324   5.6324   5.8154   5.8154   5.8972   5.8972
     6.0892   6.0892   6.3361   6.3361   6.4992   6.4992   6.5143   6.5143
     7.1057   7.1057   7.3321   7.3321   7.8802   7.8802   7.9717   7.9717
     8.0962   8.0962   8.2538   8.2538   8.4898   8.4898   8.6155   8.6155
    12.2024  12.2024  12.2413  12.2413  12.5906  12.5906  12.6325  12.6325
    12.8119  12.8119  12.8647  12.8647  14.6393  14.6393  14.6669  14.6669

          k =-0.4976-0.4891 0.0000 (  8988 PWs)   bands (ev):

   -47.3046 -47.3046 -47.3027 -47.3027 -28.9884 -28.9884 -28.9801 -28.9801
   -23.6247 -23.6247 -23.6124 -23.6124 -23.6077 -23.6077 -23.5483 -23.5483
   -23.5387 -23.5387 -23.5319 -23.5319 -10.4948 -10.4948 -10.3029 -10.3029
   -10.2600 -10.2600 -10.0365 -10.0365 -10.0198 -10.0198  -9.9929  -9.9929
    -7.4150  -7.4150  -7.3017  -7.3017  -7.1480  -7.1480  -6.9528  -6.9528
    -6.6116  -6.6116  -6.5959  -6.5959   4.6549   4.6549   4.8154   4.8154
     4.9282   4.9282   5.1265   5.1265   6.3743   6.3743   6.4241   6.4241
     6.5730   6.5730   6.6544   6.6544   6.6609   6.6609   7.0767   7.0767
     7.1020   7.1020   7.1034   7.1034   7.4292   7.4292   7.5788   7.5788
     7.7941   7.7941   8.5496   8.5496   8.5503   8.5503   8.7973   8.7973
    11.3257  11.3257  12.4770  12.4770  12.5423  12.5423  12.7166  12.7166
    12.9320  12.9320  13.2012  13.2012  14.0344  14.0344  14.5567  14.5567

          k =-0.4976-0.4891 0.1750 (  9032 PWs)   bands (ev):

   -47.3043 -47.3043 -47.3030 -47.3030 -28.9872 -28.9872 -28.9813 -28.9813
   -23.6184 -23.6184 -23.6126 -23.6126 -23.6032 -23.6032 -23.5573 -23.5573
   -23.5382 -23.5382 -23.5343 -23.5343 -10.4683 -10.4683 -10.3327 -10.3327
   -10.2277 -10.2277 -10.0696 -10.0696 -10.0166 -10.0166  -9.9978  -9.9978
    -7.3857  -7.3857  -7.2803  -7.2803  -7.1251  -7.1251  -6.9321  -6.9321
    -6.6642  -6.6642  -6.6453  -6.6453   4.8089   4.8089   4.9124   4.9124
     4.9525   4.9525   5.2622   5.2622   6.0296   6.0296   6.2667   6.2667
     6.4488   6.4488   6.5489   6.5489   6.7496   6.7496   6.9471   6.9471
     7.0219   7.0219   7.3813   7.3813   7.6035   7.6035   7.6606   7.6606
     8.0387   8.0387   8.2582   8.2582   8.3596   8.3596   8.7601   8.7601
    11.5901  11.5901  12.4669  12.4669  12.5610  12.5610  12.6951  12.6951
    12.9383  12.9383  13.1293  13.1293  14.1195  14.1195  14.5109  14.5109

          k =-0.4976-0.4891-0.3499 (  9016 PWs)   bands (ev):

   -47.3036 -47.3036 -47.3036 -47.3036 -28.9843 -28.9843 -28.9843 -28.9843
   -23.6137 -23.6137 -23.6137 -23.6137 -23.5816 -23.5816 -23.5816 -23.5816
   -23.5367 -23.5367 -23.5367 -23.5367 -10.4022 -10.4022 -10.4022 -10.4022
   -10.1489 -10.1489 -10.1489 -10.1489 -10.0078 -10.0078 -10.0078 -10.0078
    -7.3190  -7.3190  -7.3190  -7.3190  -6.9909  -6.9909  -6.9909  -6.9909
    -6.7102  -6.7102  -6.7102  -6.7102   4.9358   4.9358   4.9358   4.9358
     5.3155   5.3155   5.3155   5.3155   5.8040   5.8040   5.8040   5.8040
     6.4907   6.4907   6.4907   6.4907   6.8672   6.8672   6.8672   6.8672
     7.1476   7.1476   7.1476   7.1476   7.8313   7.8313   7.8313   7.8313
     8.0103   8.0103   8.0103   8.0103   8.5268   8.5268   8.5268   8.5268
    12.1210  12.1210  12.1210  12.1210  12.6248  12.6248  12.6248  12.6248
    12.9988  12.9988  12.9988  12.9988  14.3566  14.3566  14.3566  14.3566

     the Fermi energy is     9.5890 ev

!    total energy              =   -1513.98616529 Ry
     estimated scf accuracy    <          2.7E-09 Ry
     smearing contrib. (-TS)   =      -0.00000000 Ry
     internal energy E=F+TS    =   -1513.98616529 Ry

     The total energy is F=E-TS. E is the sum of the following terms:
     one-electron contribution =    -329.71169596 Ry
     hartree contribution      =     251.07197700 Ry
     xc contribution           =    -210.81225161 Ry
     ewald contribution        =    -870.41372768 Ry
     one-center paw contrib.   =    -354.12046704 Ry

     convergence has been achieved in  16 iterations

     negative rho (up, down):  4.533E-03 0.000E+00

     Forces acting on atoms (cartesian axes, Ry/au):

     atom    1 type  1   force =    -0.00042237   -0.00029392    0.00000000
     atom    2 type  1   force =     0.00042237    0.00029392    0.00000000
     atom    3 type  1   force =     0.00042237   -0.00029392    0.00000000
     atom    4 type  1   force =    -0.00042237    0.00029392    0.00000000
     atom    5 type  2   force =     0.00000000    0.00000000    0.00000000
     atom    6 type  2   force =     0.00000000    0.00000000    0.00000000
     atom    7 type  2   force =     0.00000000    0.00000000    0.00000000
     atom    8 type  2   force =     0.00000000    0.00000000    0.00000000
     atom    9 type  3   force =     0.00047676   -0.00099829    0.00000000
     atom   10 type  3   force =    -0.00047676    0.00099829    0.00000000
     atom   11 type  3   force =    -0.00047676   -0.00099829    0.00000000
     atom   12 type  3   force =     0.00047676    0.00099829    0.00000000
     atom   13 type  3   force =    -0.00003842    0.00057763   -0.00081125
     atom   14 type  3   force =     0.00003842   -0.00057763   -0.00081125
     atom   15 type  3   force =     0.00003842   -0.00057763    0.00081125
[...]
     6.1002   6.3806   6.4761   6.5524   6.6337   6.7722   6.8894   7.0964
     7.1638   7.3909   7.5364   7.5498   7.6206   7.7781   7.8432   7.9497
     7.9940   8.3470   8.3726   8.4679   8.4858   8.6051   8.6290   8.7366
    11.2857  12.0629  12.0697  12.1245  12.1282  12.5652  12.6905  12.6929
    12.8965  13.0108  13.0334  13.2166  14.0307  14.3363  14.3587  14.6312

          k = 0.2489 0.2444 0.1749 (  9172 PWs)   bands (ev):

   -47.3222 -47.3209 -47.3205 -47.3192 -28.9818 -28.9766 -28.9730 -28.9678
   -23.6329 -23.6266 -23.6263 -23.6186 -23.5946 -23.5920 -23.5904 -23.5881
   -23.5732 -23.5661 -23.5552 -23.5512 -10.3890 -10.3316 -10.2962 -10.2752
   -10.1939 -10.1768 -10.1500 -10.1199 -10.0767 -10.0284 -10.0171 -10.0008
    -7.7113  -7.3753  -7.2490  -7.1018  -7.0989  -7.0177  -6.9419  -6.9187
    -6.7836  -6.7393  -6.7268  -6.7010   4.9353   4.9656   5.0407   5.0527
     5.2721   5.2981   5.4280   5.5600   5.6364   5.7860   5.8219   5.9215
     6.1142   6.2462   6.2753   6.3289   6.4304   6.5663   6.9020   6.9843
     7.1818   7.3278   7.4198   7.5455   7.7448   7.8091   7.9591   8.0340
     8.2007   8.2542   8.2873   8.4225   8.4534   8.5285   8.5720   8.7196
    11.5500  12.0716  12.0976  12.1788  12.2465  12.5045  12.7197  12.7577
    12.7856  12.9358  12.9982  13.1320  14.0917  14.3128  14.6461  14.7838

          k = 0.2489 0.2444-0.3499 (  9168 PWs)   bands (ev):

   -47.3216 -47.3216 -47.3198 -47.3198 -28.9792 -28.9792 -28.9704 -28.9704
   -23.6280 -23.6280 -23.6040 -23.6040 -23.6000 -23.6000 -23.5888 -23.5888
   -23.5833 -23.5833 -23.5537 -23.5537 -10.3435 -10.3435 -10.2695 -10.2695
   -10.1788 -10.1788 -10.1467 -10.1467 -10.0851 -10.0851 -10.0098 -10.0098
    -7.5288  -7.5288  -7.1010  -7.1010  -7.0594  -7.0594  -6.9448  -6.9448
    -6.8335  -6.8335  -6.7215  -6.7215   4.9727   4.9727   5.2879   5.2879
     5.3757   5.3757   5.5824   5.5824   5.7393   5.7393   5.9718   5.9718
     5.9882   5.9882   6.2037   6.2037   6.3146   6.3146   6.7006   6.7006
     7.2320   7.2320   7.4666   7.4666   7.7644   7.7644   8.0929   8.0929
     8.2424   8.2424   8.3743   8.3743   8.4490   8.4490   8.6385   8.6385
    12.0639  12.0639  12.1194  12.1194  12.4530  12.4530  12.5724  12.5724
    12.8021  12.8021  13.0192  13.0192  14.2341  14.2341  15.2646  15.2696

          k = 0.2489-0.4889 0.0000 (  9182 PWs)   bands (ev):

   -47.3216 -47.3216 -47.3198 -47.3198 -28.9788 -28.9788 -28.9708 -28.9708
   -23.6377 -23.6377 -23.6170 -23.6170 -23.6152 -23.6152 -23.5688 -23.5688
   -23.5652 -23.5652 -23.5536 -23.5536 -10.4114 -10.4114 -10.2706 -10.2706
   -10.2521 -10.2521 -10.0641 -10.0641 -10.0274 -10.0274 -10.0253 -10.0253
    -7.4382  -7.4382  -7.3102  -7.3102  -7.1094  -7.1094  -6.8863  -6.8863
    -6.7226  -6.7226  -6.6615  -6.6615   4.8898   4.8898   4.9051   4.9051
     5.1120   5.1120   5.2992   5.2992   5.9307   5.9307   6.2368   6.2368
     6.3941   6.3941   6.4667   6.4667   6.5344   6.5344   7.0610   7.0610
     7.1426   7.1426   7.1698   7.1698   7.5738   7.5738   7.9760   7.9760
     8.1563   8.1563   8.2863   8.2863   8.3811   8.3811   8.6815   8.6815
    11.5680  11.5680  12.4518  12.4518  12.5021  12.5021  12.7206  12.7206
    12.7849  12.7849  13.1362  13.1362  14.1049  14.1049  14.8064  14.8064

          k = 0.2489-0.4889 0.1749 (  9190 PWs)   bands (ev):

   -47.3213 -47.3213 -47.3200 -47.3200 -28.9776 -28.9776 -28.9720 -28.9720
   -23.6289 -23.6289 -23.6174 -23.6174 -23.6131 -23.6131 -23.5749 -23.5749
   -23.5646 -23.5646 -23.5587 -23.5587 -10.3906 -10.3906 -10.2847 -10.2847
   -10.2270 -10.2270 -10.0706 -10.0706 -10.0511 -10.0511 -10.0317 -10.0317
    -7.3850  -7.3850  -7.2967  -7.2967  -7.0892  -7.0892  -6.8935  -6.8935
    -6.7719  -6.7719  -6.6992  -6.6992   4.9583   4.9583   5.1041   5.1041
     5.2127   5.2127   5.3268   5.3268   5.9471   5.9471   6.0834   6.0834
     6.2878   6.2878   6.4261   6.4261   6.5018   6.5018   6.6195   6.6195
     7.0723   7.0723   7.5458   7.5458   7.7747   7.7747   7.9002   7.9002
     8.0370   8.0370   8.2595   8.2595   8.3523   8.3523   8.6639   8.6639
    11.7652  11.7652  12.4807  12.4807  12.4896  12.4896  12.7002  12.7002
    12.7883  12.7883  13.0345  13.0345  14.2621  14.2621  14.7618  14.7618

          k = 0.2489-0.4889-0.3499 (  9136 PWs)   bands (ev):

   -47.3207 -47.3207 -47.3207 -47.3207 -28.9748 -28.9748 -28.9748 -28.9748
   -23.6193 -23.6193 -23.6193 -23.6193 -23.5968 -23.5968 -23.5968 -23.5968
   -23.5629 -23.5629 -23.5629 -23.5629 -10.3381 -10.3381 -10.3381 -10.3381
   -10.1472 -10.1472 -10.1472 -10.1472 -10.0450 -10.0450 -10.0450 -10.0450
    -7.3032  -7.3032  -7.3032  -7.3032  -7.0007  -7.0007  -7.0007  -7.0007
    -6.7673  -6.7673  -6.7673  -6.7673   5.1079   5.1079   5.1079   5.1079
     5.5165   5.5165   5.5165   5.5165   5.8418   5.8418   5.8418   5.8418
     6.1686   6.1686   6.1686   6.1686   6.5584   6.5584   6.5584   6.5584
     7.2467   7.2467   7.2467   7.2467   7.8217   7.8217   7.8217   7.8217
     8.2041   8.2041   8.2041   8.2041   8.5183   8.5183   8.5183   8.5183
    12.2069  12.2069  12.2069  12.2069  12.5824  12.5824  12.5824  12.5824
    12.8561  12.8561  12.8561  12.8561  14.5919  14.5919  14.5919  14.5919

          k =-0.4977 0.0000 0.0000 (  9178 PWs)   bands (ev):

   -47.3216 -47.3216 -47.3198 -47.3198 -28.9789 -28.9789 -28.9707 -28.9707
   -23.6366 -23.6366 -23.5955 -23.5955 -23.5942 -23.5942 -23.5887 -23.5887
   -23.5863 -23.5863 -23.5566 -23.5566 -10.3182 -10.3182 -10.2954 -10.2954
   -10.2019 -10.2019 -10.1407 -10.1407 -10.0824 -10.0824 -10.0104 -10.0104
    -7.5006  -7.5006  -7.1183  -7.1183  -7.0561  -7.0561  -6.9127  -6.9127
    -6.8654  -6.8654  -6.7053  -6.7053   4.8993   4.8993   5.1773   5.1773
     5.4233   5.4233   5.5801   5.5801   5.6738   5.6738   5.9643   5.9643
     6.0936   6.0936   6.1930   6.1930   6.2260   6.2260   6.8571   6.8571
     7.2299   7.2299   7.4511   7.4511   7.7810   7.7810   8.1657   8.1657
     8.3323   8.3323   8.3695   8.3695   8.3955   8.3955   8.5690   8.5690
    12.0983  12.0983  12.1229  12.1229  12.3806  12.3806  12.5232  12.5232
    12.8167  12.8167  13.0683  13.0683  14.2496  14.2496  15.3274  15.3303

          k =-0.4977 0.0000 0.1749 (  9160 PWs)   bands (ev):

   -47.3214 -47.3214 -47.3200 -47.3200 -28.9779 -28.9779 -28.9717 -28.9717
   -23.6265 -23.6265 -23.5953 -23.5953 -23.5947 -23.5947 -23.5906 -23.5906
   -23.5853 -23.5853 -23.5659 -23.5659 -10.3008 -10.3008 -10.2745 -10.2745
   -10.2126 -10.2126 -10.1360 -10.1360 -10.0940 -10.0940 -10.0352 -10.0352
    -7.4301  -7.4301  -7.1389  -7.1389  -7.0246  -7.0246  -6.9332  -6.9332
    -6.8843  -6.8843  -6.7547  -6.7547   4.9964   4.9964   5.3123   5.3123
     5.5036   5.5036   5.5782   5.5782   5.7728   5.7728   5.9744   5.9744
     6.1109   6.1109   6.1256   6.1256   6.2558   6.2558   6.6798   6.6798
     6.8407   6.8407   7.2058   7.2058   7.9713   7.9713   8.1347   8.1347
     8.3712   8.3712   8.4268   8.4268   8.4520   8.4520   8.5971   8.5971
    12.2099  12.2099  12.2125  12.2125  12.3943  12.3943  12.5003  12.5003
    12.8025  12.8025  12.8932  12.8932  14.5489  14.5489  15.3251  15.3257

          k =-0.4977 0.0000-0.3499 (  9132 PWs)   bands (ev):

   -47.3207 -47.3207 -47.3207 -47.3207 -28.9764 -28.9764 -28.9731 -28.9731
   -23.6044 -23.6044 -23.6041 -23.6041 -23.5944 -23.5944 -23.5943 -23.5943
   -23.5807 -23.5807 -23.5805 -23.5805 -10.2652 -10.2652 -10.2622 -10.2622
   -10.2276 -10.2276 -10.1214 -10.1214 -10.1158 -10.1158 -10.0649 -10.0649
    -7.2877  -7.2877  -7.2398  -7.2398  -6.9561  -6.9561  -6.9560  -6.9560
    -6.9239  -6.9239  -6.8095  -6.8095   5.1951   5.1951   5.2056   5.2056
     5.5780   5.5780   5.7876   5.7876   5.9507   5.9507   5.9722   5.9722
     6.1858   6.1858   6.2007   6.2007   6.3644   6.3644   6.4271   6.4271
     6.5442   6.5442   6.5668   6.5668   8.0157   8.0157   8.3039   8.3039
     8.3360   8.3360   8.4575   8.4575   8.5624   8.5624   8.5954   8.5954
    12.4010  12.4010  12.4343  12.4343  12.4510  12.4510  12.5185  12.5185
    12.5613  12.5613  12.6020  12.6020  15.2829  15.2835  15.2996  15.3056

          k =-0.4977 0.2444 0.0000 (  9148 PWs)   bands (ev):

   -47.3216 -47.3216 -47.3198 -47.3198 -28.9789 -28.9789 -28.9707 -28.9707
   -23.6378 -23.6378 -23.6170 -23.6170 -23.6150 -23.6150 -23.5688 -23.5688
   -23.5652 -23.5652 -23.5536 -23.5536 -10.4238 -10.4238 -10.2756 -10.2756
   -10.2584 -10.2584 -10.0620 -10.0620 -10.0219 -10.0219 -10.0192 -10.0192
    -7.4087  -7.4087  -7.3085  -7.3085  -7.1230  -7.1230  -6.8872  -6.8872
    -6.7250  -6.7250  -6.6528  -6.6528   4.8511   4.8511   4.8744   4.8744
     5.1099   5.1099   5.3001   5.3001   6.0260   6.0260   6.2217   6.2217
     6.2228   6.2228   6.4154   6.4154   6.4971   6.4971   7.0884   7.0884
     7.1550   7.1550   7.2327   7.2327   7.8418   7.8418   7.9747   7.9747
     7.9875   7.9875   8.3077   8.3077   8.3679   8.3679   8.7189   8.7189
    11.5782  11.5782  12.4579  12.4579  12.4660  12.4660  12.7407  12.7407
    12.7501  12.7501  13.1242  13.1242  14.1067  14.1067  14.8380  14.8380

          k =-0.4977 0.2444 0.1749 (  9154 PWs)   bands (ev):

   -47.3213 -47.3213 -47.3200 -47.3200 -28.9778 -28.9778 -28.9718 -28.9718
   -23.6290 -23.6290 -23.6175 -23.6175 -23.6130 -23.6130 -23.5749 -23.5749
   -23.5646 -23.5646 -23.5587 -23.5587 -10.4021 -10.4021 -10.2900 -10.2900
   -10.2375 -10.2375 -10.0650 -10.0650 -10.0471 -10.0471 -10.0240 -10.0240
    -7.3637  -7.3637  -7.2863  -7.2863  -7.1004  -7.1004  -6.8898  -6.8898
    -6.7880  -6.7880  -6.6844  -6.6844   4.8920   4.8920   5.0817   5.0817
     5.2108   5.2108   5.3403   5.3403   5.9427   5.9427   6.1240   6.1240
     6.2706   6.2706   6.3618   6.3618   6.4907   6.4907   6.5555   6.5555
     7.1532   7.1532   7.5365   7.5365   7.8895   7.8895   7.9381   7.9381
     8.0302   8.0302   8.1758   8.1758   8.3698   8.3698   8.7079   8.7079
    11.7730  11.7730  12.4524  12.4524  12.4938  12.4938  12.7247  12.7247
    12.7438  12.7438  13.0176  13.0176  14.2762  14.2762  14.7987  14.7987

          k =-0.4977 0.2444-0.3499 (  9140 PWs)   bands (ev):

   -47.3207 -47.3207 -47.3207 -47.3207 -28.9760 -28.9760 -28.9736 -28.9736
   -23.6195 -23.6195 -23.6191 -23.6191 -23.5969 -23.5969 -23.5968 -23.5968
   -23.5629 -23.5629 -23.5628 -23.5628 -10.3554 -10.3554 -10.3379 -10.3379
   -10.1904 -10.1904 -10.1063 -10.1063 -10.0495 -10.0495 -10.0308 -10.0308
    -7.3259  -7.3259  -7.2446  -7.2446  -7.0403  -7.0403  -6.9573  -6.9573
    -6.8336  -6.8336  -6.7182  -6.7182   5.0481   5.0481   5.0564   5.0564
     5.4253   5.4253   5.6310   5.6310   5.8092   5.8092   5.8907   5.8907
     6.0845   6.0845   6.3326   6.3326   6.4947   6.4947   6.5107   6.5107
     7.0997   7.0997   7.3248   7.3248   7.8738   7.8738   7.9633   7.9633
     8.0876   8.0876   8.2478   8.2478   8.4796   8.4796   8.6070   8.6070
    12.1840  12.1840  12.2240  12.2240  12.5712  12.5712  12.6119  12.6119
    12.7931  12.7931  12.8475  12.8475  14.6158  14.6158  14.6435  14.6435

          k =-0.4977-0.4889 0.0000 (  9176 PWs)   bands (ev):

   -47.3216 -47.3216 -47.3198 -47.3198 -28.9790 -28.9790 -28.9706 -28.9706
   -23.6398 -23.6398 -23.6277 -23.6277 -23.6233 -23.6233 -23.5638 -23.5638
   -23.5546 -23.5546 -23.5480 -23.5480 -10.4923 -10.4923 -10.2994 -10.2994
   -10.2540 -10.2540 -10.0297 -10.0297 -10.0123 -10.0123  -9.9851  -9.9851
    -7.4185  -7.4185  -7.3011  -7.3011  -7.1532  -7.1532  -6.9625  -6.9625
    -6.6176  -6.6176  -6.5995  -6.5995   4.6539   4.6539   4.8107   4.8107
     4.9239   4.9239   5.1243   5.1243   6.3652   6.3652   6.4148   6.4148
     6.5685   6.5685   6.6503   6.6503   6.6562   6.6562   7.0657   7.0657
     7.1014   7.1014   7.1042   7.1042   7.4215   7.4215   7.5727   7.5727
     7.7923   7.7923   8.5402   8.5402   8.5417   8.5417   8.7807   8.7807
    11.3140  11.3140  12.4550  12.4550  12.5191  12.5191  12.6887  12.6887
    12.9145  12.9145  13.1820  13.1820  14.0186  14.0186  14.5358  14.5358

          k =-0.4977-0.4889 0.1749 (  9172 PWs)   bands (ev):

   -47.3213 -47.3213 -47.3200 -47.3200 -28.9778 -28.9778 -28.9718 -28.9718
   -23.6335 -23.6335 -23.6280 -23.6280 -23.6188 -23.6188 -23.5728 -23.5728
   -23.5541 -23.5541 -23.5503 -23.5503 -10.4656 -10.4656 -10.3293 -10.3293
   -10.2215 -10.2215 -10.0628 -10.0628 -10.0089 -10.0089  -9.9900  -9.9900
    -7.3889  -7.3889  -7.2807  -7.2807  -7.1302  -7.1302  -6.9416  -6.9416
    -6.6671  -6.6671  -6.6511  -6.6511   4.8066   4.8066   4.9077   4.9077
     4.9496   4.9496   5.2581   5.2581   6.0271   6.0271   6.2573   6.2573
     6.4412   6.4412   6.5439   6.5439   6.7458   6.7458   6.9402   6.9402
     7.0198   7.0198   7.3753   7.3753   7.5985   7.5985   7.6535   7.6535
     8.0348   8.0348   8.2517   8.2517   8.3503   8.3503   8.7457   8.7457
    11.5764  11.5764  12.4454  12.4454  12.5381  12.5381  12.6701  12.6701
    12.9208  12.9208  13.1100  13.1100  14.1017  14.1017  14.4899  14.4899

          k =-0.4977-0.4889-0.3499 (  9144 PWs)   bands (ev):

   -47.3207 -47.3207 -47.3207 -47.3207 -28.9748 -28.9748 -28.9748 -28.9748
   -23.6290 -23.6290 -23.6290 -23.6290 -23.5972 -23.5972 -23.5972 -23.5972
   -23.5526 -23.5526 -23.5526 -23.5526 -10.3991 -10.3991 -10.3991 -10.3991
   -10.1425 -10.1425 -10.1425 -10.1425 -10.0001 -10.0001 -10.0001 -10.0001
    -7.3214  -7.3214  -7.3214  -7.3214  -6.9972  -6.9972  -6.9972  -6.9972
    -6.7147  -6.7147  -6.7147  -6.7147   4.9311   4.9311   4.9311   4.9311
     5.3144   5.3144   5.3144   5.3144   5.7967   5.7967   5.7967   5.7967
     6.4842   6.4842   6.4842   6.4842   6.8637   6.8637   6.8637   6.8637
     7.1413   7.1413   7.1413   7.1413   7.8277   7.8277   7.8277   7.8277
     8.0019   8.0019   8.0019   8.0019   8.5170   8.5170   8.5170   8.5170
    12.1027  12.1027  12.1027  12.1027  12.6025  12.6025  12.6025  12.6025
    12.9806  12.9806  12.9806  12.9806  14.3358  14.3358  14.3358  14.3358

     the Fermi energy is     9.5670 ev

!    total energy              =   -1513.98655712 Ry
     estimated scf accuracy    <          8.2E-11 Ry
     smearing contrib. (-TS)   =      -0.00000000 Ry
     internal energy E=F+TS    =   -1513.98655712 Ry

     The total energy is F=E-TS. E is the sum of the following terms:
     one-electron contribution =    -329.57433710 Ry
     hartree contribution      =     250.96739952 Ry
     xc contribution           =    -210.80537473 Ry
     ewald contribution        =    -870.45414400 Ry
     one-center paw contrib.   =    -354.12010080 Ry

     convergence has been achieved in  22 iterations

     negative rho (up, down):  4.524E-03 0.000E+00

     Forces acting on atoms (cartesian axes, Ry/au):

     atom    1 type  1   force =     0.00005184    0.00008973    0.00000000
     atom    2 type  1   force =    -0.00005184   -0.00008973    0.00000000
     atom    3 type  1   force =    -0.00005184    0.00008973    0.00000000
     atom    4 type  1   force =     0.00005184   -0.00008973    0.00000000
     atom    5 type  2   force =     0.00000000    0.00000000    0.00000000
     atom    6 type  2   force =     0.00000000    0.00000000    0.00000000
     atom    7 type  2   force =     0.00000000    0.00000000    0.00000000
     atom    8 type  2   force =     0.00000000    0.00000000   -0.00000000
     atom    9 type  3   force =    -0.00004021    0.00002315    0.00000000
     atom   10 type  3   force =     0.00004021   -0.00002315    0.00000000
     atom   11 type  3   force =     0.00004021    0.00002315    0.00000000
     atom   12 type  3   force =    -0.00004021   -0.00002315    0.00000000
     atom   13 type  3   force =    -0.00008973    0.00003649   -0.00006574
     atom   14 type  3   force =     0.00008973   -0.00003649   -0.00006574
     atom   15 type  3   force =     0.00008973   -0.00003649    0.00006574
     atom   16 type  3   force =    -0.00008973    0.00003649    0.00006574
     atom   17 type  3   force =     0.00008973    0.00003649   -0.00006574
     atom   18 type  3   force =    -0.00008973   -0.00003649   -0.00006574
     atom   19 type  3   force =    -0.00008973   -0.00003649    0.00006574
     atom   20 type  3   force =     0.00008973    0.00003649    0.00006574

     Total force =     0.000401     Total SCF correction =     0.000003


     Computing stress (Cartesian axis) and pressure


     negative rho (up, down):  4.524E-03 0.000E+00
          total   stress  (Ry/bohr**3)                   (kbar)     P=       -0.03
  -0.00000129   0.00000000   0.00000000           -0.19        0.00        0.00
   0.00000000   0.00000041   0.00000000            0.00        0.06        0.00
   0.00000000   0.00000000   0.00000019            0.00        0.00        0.03


     Writing output data file ./out/CaO3Ti.save/

     init_run     :     63.64s CPU     71.40s WALL (       2 calls)
     electrons    :  10634.89s CPU  11198.46s WALL (      12 calls)
     update_pot   :    114.08s CPU    117.77s WALL (      10 calls)
     forces       :    227.58s CPU    234.71s WALL (      12 calls)
     stress       :    354.69s CPU    365.28s WALL (      12 calls)

     Called by init_run:
     wfcinit      :     42.72s CPU     47.74s WALL (       2 calls)
     potinit      :      7.09s CPU      7.94s WALL (       2 calls)
     hinit0       :     12.68s CPU     14.40s WALL (       2 calls)

     Called by electrons:
     c_bands      :   9793.43s CPU  10301.22s WALL (     152 calls)
     sum_band     :    686.87s CPU    729.29s WALL (     152 calls)
     v_of_rho     :     15.43s CPU     16.28s WALL (     156 calls)
     newd         :     58.55s CPU     67.49s WALL (     156 calls)
     PAW_pot      :     93.81s CPU     98.61s WALL (     166 calls)
     mix_rho      :      2.13s CPU      2.30s WALL (     152 calls)

     Called by c_bands:
     init_us_2    :     13.98s CPU     14.76s WALL (    4760 calls)
     cegterg      :   9417.10s CPU   9901.89s WALL (    2128 calls)

     Called by *egterg:
     cdiaghg      :    482.90s CPU    525.00s WALL (   10744 calls)
     h_psi        :   3127.12s CPU   3327.43s WALL (   11024 calls)
     s_psi        :    979.16s CPU   1029.05s WALL (   11024 calls)
     g_psi        :      6.43s CPU      6.80s WALL (    8868 calls)

     Called by h_psi:
     h_psi:calbec :   1346.91s CPU   1401.86s WALL (   11024 calls)
     vloc_psi     :    797.46s CPU    889.45s WALL (   11024 calls)
     add_vuspsi   :    977.69s CPU   1030.86s WALL (   11024 calls)

     General routines
     calbec       :   2062.01s CPU   2140.38s WALL (   14132 calls)
     fft          :     39.28s CPU     40.10s WALL (    2322 calls)
     ffts         :      0.47s CPU      0.53s WALL (     308 calls)
     fftw         :    842.05s CPU    939.59s WALL ( 1386398 calls)
     interpolate  :      0.96s CPU      1.05s WALL (     156 calls)

     Parallel routines
     fft_scatt_xy :     77.42s CPU     84.63s WALL ( 1389028 calls)
     fft_scatt_yz :    502.44s CPU    567.37s WALL ( 1389028 calls)

     PWSCF        :      3h10m CPU      3h20m WALL


   This run was terminated on:  16:42:40   1Jul2026            

=------------------------------------------------------------------------------=
   JOB DONE.
=------------------------------------------------------------------------------=
Note: The following floating-point exceptions are signalling: IEEE_UNDERFLOW_FLAG IEEE_DENORMAL
Note: The following floating-point exceptions are signalling: IEEE_UNDERFLOW_FLAG IEEE_DENORMAL
Note: The following floating-point exceptions are signalling: IEEE_UNDERFLOW_FLAG IEEE_DENORMAL
Note: The following floating-point exceptions are signalling: IEEE_UNDERFLOW_FLAG IEEE_DENORMAL
Note: The following floating-point exceptions are signalling: IEEE_UNDERFLOW_FLAG IEEE_DENORMAL
Note: The following floating-point exceptions are signalling: IEEE_UNDERFLOW_FLAG IEEE_DENORMAL
Note: The following floating-point exceptions are signalling: IEEE_UNDERFLOW_FLAG IEEE_DENORMAL
Note: The following floating-point exceptions are signalling: IEEE_UNDERFLOW_FLAG IEEE_DENORMAL
