
     Program PWSCF v.6.7MaX starts on  1Jul2026 at 16:42:41 

     This program is part of the open-source Quantum ESPRESSO suite
     for quantum simulation of materials; please cite
         "P. Giannozzi et al., J. Phys.:Condens. Matter 21 395502 (2009);
         "P. Giannozzi et al., J. Phys.:Condens. Matter 29 465901 (2017);
          URL http://www.quantum-espresso.org", 
     in publications or presentations arising from this work. More details at
     http://www.quantum-espresso.org/quote

     Parallel version (MPI), running on     8 processors

     MPI processes distributed on     1 nodes
     K-points division:     npool     =       2
     R & G space division:  proc/nbgrp/npool/nimage =       4
     Waiting for input...
     Reading input from standard input
Warning: card &CELL ignored
Warning: card / ignored

     Current dimensions of program PWSCF are:
     Max number of different atomic species (ntypx) = 10
     Max number of k-points (npk) =  40000
     Max angular momentum in pseudopotentials (lmaxx) =  3
     file Ca.pbe-spn-kjpaw_psl.1.0.0.UPF: wavefunction(s)  3S renormalized
     file O.pbe-n-kjpaw_psl.0.1.UPF: wavefunction(s)  2P renormalized

     Subspace diagonalization in iterative solution of the eigenvalue problem:
     one sub-group per band group will be used
     scalapack distributed-memory algorithm (size of sub-group:  2*  2 procs)


     Parallelization info
     --------------------
     sticks:   dense  smooth     PW     G-vecs:    dense   smooth      PW
     Min         835     417    121                51066    18053    2763
     Max         836     418    122                51067    18056    2766
     Sum        3341    1671    485               204267    72219   11059



     bravais-lattice index     =            0
     lattice parameter (alat)  =      10.1517  a.u.
     unit-cell volume          =    1512.3000 (a.u.)^3
     number of atoms/cell      =           20
     number of atomic types    =            3
     number of electrons       =       160.00
     number of Kohn-Sham states=           80
     kinetic-energy cutoff     =      50.0000  Ry
     charge density cutoff     =     400.0000  Ry
     scf convergence threshold =      1.0E-10
     mixing beta               =       0.3000
     number of iterations used =            8  plain     mixing
     Exchange-correlation= SLA  PW   PBX  PBC
                           (   1   4   3   4   0   0   0)

     celldm(1)=  10.151701  celldm(2)=   0.000000  celldm(3)=   0.000000
     celldm(4)=   0.000000  celldm(5)=   0.000000  celldm(6)=   0.000000

     crystal axes: (cart. coord. in units of alat)
               a(1) = (   1.000000   0.000000   0.000000 )  
               a(2) = (   0.000000   1.016893   0.000000 )  
               a(3) = (   0.000000   0.000000   1.421499 )  

     reciprocal axes: (cart. coord. in units 2 pi/alat)
               b(1) = (  1.000000  0.000000  0.000000 )  
               b(2) = (  0.000000  0.983388  0.000000 )  
               b(3) = (  0.000000  0.000000  0.703483 )  


     PseudoPot. # 1 for Ca read from file:
     /data/pseudopotentials/Ca.pbe-spn-kjpaw_psl.1.0.0.UPF
     MD5 check sum: 1e11ab70c77b02a7d7d676f41d47b751
     Pseudo is Projector augmented-wave + core cor, Zval = 10.0
     Generated using &quot;atomic&quot; code by A. Dal Corso  v.6.4.1
     Shape of augmentation charge: PSQ
     Using radial grid of 1169 points,  6 beta functions with: 
                l(1) =   0
                l(2) =   0
                l(3) =   1
                l(4) =   1
                l(5) =   2
                l(6) =   2
     Q(r) pseudized with 0 coefficients 


     PseudoPot. # 2 for Ti read from file:
     /data/pseudopotentials/ti_pbe_v1.4.uspp.F.UPF
     MD5 check sum: 88a00a6731bd790ddea75d31a80cb452
     Pseudo is Ultrasoft + core correction, Zval = 12.0
     Generated by new atomic code, or converted to UPF format
     Using radial grid of  851 points,  6 beta functions with: 
                l(1) =   0
                l(2) =   0
                l(3) =   1
                l(4) =   1
                l(5) =   2
                l(6) =   2
     Q(r) pseudized with  6 coefficients,  rinner =    1.000   1.000   1.000
                                                       1.000   1.000

     PseudoPot. # 3 for O  read from file:
     /data/pseudopotentials/O.pbe-n-kjpaw_psl.0.1.UPF
     MD5 check sum: 833c495a5d0f9b75bf046115549bffff
     Pseudo is Projector augmented-wave + core cor, Zval =  6.0
     Generated using &quot;atomic&quot; code by A. Dal Corso  v.6.3
     Shape of augmentation charge: BESSEL
     Using radial grid of 1095 points,  4 beta functions with: 
                l(1) =   0
                l(2) =   0
                l(3) =   1
                l(4) =   1
     Q(r) pseudized with 0 coefficients 


     atomic species   valence    mass     pseudopotential
        Ca            10.00    40.07800     Ca( 1.00)
        Ti            12.00    47.86700     Ti( 1.00)
        O              6.00    15.99900     O ( 1.00)

     No symmetry found



   Cartesian axes

     site n.     atom                  positions (alat units)
         1           Ca  tau(   1) = (   0.5090669   0.5515600   1.0661239  )
         2           Ca  tau(   2) = (   0.4909331   0.4653325   0.3553746  )
         3           Ca  tau(   3) = (   0.9909331   0.0431138   1.0661239  )
         4           Ca  tau(   4) = (   0.0090669   0.9737788   0.3553746  )
         5           Ti  tau(   5) = (   0.0000000   0.5084463   0.7107493  )
         6           Ti  tau(   6) = (   0.0000000   0.5084463   0.0000000  )
         7           Ti  tau(   7) = (   0.5000000   0.0000000   0.7107493  )
         8           Ti  tau(   8) = (   0.5000000   0.0000000   0.0000000  )
         9           O   tau(   9) = (   0.0767811   0.4894585   1.0661239  )
        10           O   tau(  10) = (   0.9232189   0.5274341   0.3553746  )
        11           O   tau(  11) = (   0.4232189   0.9979048   1.0661239  )
        12           O   tau(  12) = (   0.5767811   0.0189878   0.3553746  )
        13           O   tau(  13) = (   0.7902937   0.8029524   1.3644130  )
        14           O   tau(  14) = (   0.2097063   0.2139402   0.6536637  )
        15           O   tau(  15) = (   0.2097063   0.2139402   0.0570856  )
        16           O   tau(  16) = (   0.7902937   0.8029524   0.7678348  )
        17           O   tau(  17) = (   0.7097063   0.2945061   1.3644130  )
        18           O   tau(  18) = (   0.2902937   0.7223865   0.6536637  )
        19           O   tau(  19) = (   0.2902937   0.7223865   0.0570856  )
        20           O   tau(  20) = (   0.7097063   0.2945061   0.7678348  )

     number of k points=   112

     Number of k-points >= 100: set verbosity='high' to print them.

     Dense  grid:   204267 G-vectors     FFT dimensions: (  72,  72,  96)

     Smooth grid:    72219 G-vectors     FFT dimensions: (  45,  48,  72)

     Estimated max dynamical RAM per process >     288.91 MB

     Estimated total dynamical RAM >       2.26 GB

     Check: negative core charge=   -0.000005

     Initial potential from superposition of free atoms

     starting charge  155.98039, renormalised to  160.00000

     negative rho (up, down):  4.596E-03 0.000E+00
     Starting wfcs are  120 randomized atomic wfcs
     Checking if some PAW data can be deallocated... 

     total cpu time spent up to now is       77.3 secs

     Self-consistent Calculation

     iteration #  1     ecut=    50.00 Ry     beta= 0.30
     Davidson diagonalization with overlap
     ethr =  1.00E-02,  avg # of iterations =  2.0

     negative rho (up, down):  5.987E-03 0.000E+00

     total cpu time spent up to now is      231.7 secs

     total energy              =   -1512.93014948 Ry
     estimated scf accuracy    <       3.73716880 Ry

     iteration #  2     ecut=    50.00 Ry     beta= 0.30
     Davidson diagonalization with overlap
     ethr =  2.34E-03,  avg # of iterations =  5.0

     negative rho (up, down):  5.340E-03 0.000E+00

     total cpu time spent up to now is      446.2 secs

     total energy              =   -1513.85160359 Ry
     estimated scf accuracy    <       0.32260815 Ry

     iteration #  3     ecut=    50.00 Ry     beta= 0.30
     Davidson diagonalization with overlap
     ethr =  2.02E-04,  avg # of iterations =  5.5

     negative rho (up, down):  4.386E-03 0.000E+00

     total cpu time spent up to now is      676.2 secs

     total energy              =   -1513.90843511 Ry
     estimated scf accuracy    <       0.18542300 Ry

     iteration #  4     ecut=    50.00 Ry     beta= 0.30
     Davidson diagonalization with overlap
     ethr =  1.16E-04,  avg # of iterations =  5.2

     negative rho (up, down):  4.924E-03 0.000E+00

     total cpu time spent up to now is      921.8 secs

     total energy              =   -1513.93772499 Ry
     estimated scf accuracy    <       0.19968361 Ry

     iteration #  5     ecut=    50.00 Ry     beta= 0.30
     Davidson diagonalization with overlap
     ethr =  1.16E-04,  avg # of iterations =  4.8

     negative rho (up, down):  5.043E-03 0.000E+00

     total cpu time spent up to now is     1118.0 secs

     total energy              =   -1513.97745308 Ry
     estimated scf accuracy    <       0.00620521 Ry

     iteration #  6     ecut=    50.00 Ry     beta= 0.30
     Davidson diagonalization with overlap
     ethr =  3.88E-06,  avg # of iterations = 11.2

     negative rho (up, down):  4.668E-03 0.000E+00

     total cpu time spent up to now is     1557.7 secs

     total energy              =   -1513.96808047 Ry
     estimated scf accuracy    <       0.10347600 Ry

     iteration #  7     ecut=    50.00 Ry     beta= 0.30
     Davidson diagonalization with overlap
     ethr =  3.88E-06,  avg # of iterations =  9.3

     negative rho (up, down):  4.582E-03 0.000E+00

     total cpu time spent up to now is     1910.6 secs

     total energy              =   -1513.98342496 Ry
     estimated scf accuracy    <       0.00055013 Ry

     iteration #  8     ecut=    50.00 Ry     beta= 0.30
     Davidson diagonalization with overlap
     ethr =  3.44E-07,  avg # of iterations =  8.4

     negative rho (up, down):  4.587E-03 0.000E+00

     total cpu time spent up to now is     2296.3 secs

     total energy              =   -1513.98400684 Ry
     estimated scf accuracy    <       0.00212696 Ry

     iteration #  9     ecut=    50.00 Ry     beta= 0.30
     Davidson diagonalization with overlap
     ethr =  3.44E-07,  avg # of iterations =  1.1

     negative rho (up, down):  4.627E-03 0.000E+00

     total cpu time spent up to now is     2427.7 secs

     total energy              =   -1513.98349668 Ry
     estimated scf accuracy    <       0.00166772 Ry

     iteration # 10     ecut=    50.00 Ry     beta= 0.30
     Davidson diagonalization with overlap
     ethr =  3.44E-07,  avg # of iterations =  5.0

     negative rho (up, down):  4.626E-03 0.000E+00

     total cpu time spent up to now is     2673.9 secs

     total energy              =   -1513.98373459 Ry
     estimated scf accuracy    <       0.00007269 Ry

     iteration # 11     ecut=    50.00 Ry     beta= 0.30
     Davidson diagonalization with overlap
     ethr =  4.54E-08,  avg # of iterations =  5.2

     negative rho (up, down):  4.639E-03 0.000E+00

     total cpu time spent up to now is     2861.2 secs

     total energy              =   -1513.98372248 Ry
     estimated scf accuracy    <       0.00004380 Ry

     iteration # 12     ecut=    50.00 Ry     beta= 0.30
     Davidson diagonalization with overlap
     ethr =  2.74E-08,  avg # of iterations =  6.2

     negative rho (up, down):  4.635E-03 0.000E+00

     total cpu time spent up to now is     3157.1 secs

     total energy              =   -1513.98374724 Ry
     estimated scf accuracy    <       0.00002445 Ry

     iteration # 13     ecut=    50.00 Ry     beta= 0.30
     Davidson diagonalization with overlap
     ethr =  1.53E-08,  avg # of iterations =  2.0

     negative rho (up, down):  4.632E-03 0.000E+00

     total cpu time spent up to now is     3301.7 secs

     total energy              =   -1513.98374405 Ry
     estimated scf accuracy    <       0.00001029 Ry

     iteration # 14     ecut=    50.00 Ry     beta= 0.30
     Davidson diagonalization with overlap
     ethr =  6.43E-09,  avg # of iterations =  5.0

     negative rho (up, down):  4.633E-03 0.000E+00

     total cpu time spent up to now is     3529.6 secs

     total energy              =   -1513.98374718 Ry
     estimated scf accuracy    <       0.00000223 Ry

     iteration # 15     ecut=    50.00 Ry     beta= 0.30
     Davidson diagonalization with overlap
     ethr =  1.39E-09,  avg # of iterations =  4.8

     negative rho (up, down):  4.633E-03 0.000E+00

     total cpu time spent up to now is     3722.4 secs

     total energy              =   -1513.98374757 Ry
     estimated scf accuracy    <       0.00000027 Ry

     iteration # 16     ecut=    50.00 Ry     beta= 0.30
     Davidson diagonalization with overlap
     ethr =  1.68E-10,  avg # of iterations =  5.8

     negative rho (up, down):  4.633E-03 0.000E+00

     total cpu time spent up to now is     3982.6 secs

     total energy              =   -1513.98374772 Ry
     estimated scf accuracy    <       0.00000014 Ry

     iteration # 17     ecut=    50.00 Ry     beta= 0.30
     Davidson diagonalization with overlap
     ethr =  8.66E-11,  avg # of iterations =  5.7

     negative rho (up, down):  4.633E-03 0.000E+00

     total cpu time spent up to now is     4247.4 secs

     total energy              =   -1513.98374779 Ry
     estimated scf accuracy    <       0.00000009 Ry

     iteration # 18     ecut=    50.00 Ry     beta= 0.30
     Davidson diagonalization with overlap
     ethr =  5.92E-11,  avg # of iterations =  2.0

     negative rho (up, down):  4.633E-03 0.000E+00

     total cpu time spent up to now is     4392.4 secs

     total energy              =   -1513.98374776 Ry
     estimated scf accuracy    <       0.00000009 Ry

     iteration # 19     ecut=    50.00 Ry     beta= 0.30
     Davidson diagonalization with overlap
     ethr =  5.51E-11,  avg # of iterations =  2.4

     negative rho (up, down):  4.634E-03 0.000E+00

     total cpu time spent up to now is     4547.8 secs

     total energy              =   -1513.98374776 Ry
     estimated scf accuracy    <       0.00000003 Ry

     iteration # 20     ecut=    50.00 Ry     beta= 0.30
     Davidson diagonalization with overlap
     ethr =  2.17E-11,  avg # of iterations =  5.5

     negative rho (up, down):  4.634E-03 0.000E+00

     total cpu time spent up to now is     4787.8 secs

     total energy              =   -1513.98374777 Ry
     estimated scf accuracy    <       0.00000002 Ry

     iteration # 21     ecut=    50.00 Ry     beta= 0.30
     Davidson diagonalization with overlap
     ethr =  1.47E-11,  avg # of iterations =  1.1

     negative rho (up, down):  4.634E-03 0.000E+00

     total cpu time spent up to now is     4915.3 secs

     total energy              =   -1513.98374777 Ry
     estimated scf accuracy    <       0.00000002 Ry

     iteration # 22     ecut=    50.00 Ry     beta= 0.30
     Davidson diagonalization with overlap
     ethr =  1.01E-11,  avg # of iterations =  1.3

     negative rho (up, down):  4.634E-03 0.000E+00

     total cpu time spent up to now is     5048.6 secs

     total energy              =   -1513.98374778 Ry
     estimated scf accuracy    <       0.00000001 Ry

     iteration # 23     ecut=    50.00 Ry     beta= 0.30
     Davidson diagonalization with overlap
     ethr =  7.97E-12,  avg # of iterations =  1.0

     negative rho (up, down):  4.634E-03 0.000E+00

     total cpu time spent up to now is     5172.2 secs

     total energy              =   -1513.98374777 Ry
     estimated scf accuracy    <       0.00000002 Ry

     iteration # 24     ecut=    50.00 Ry     beta= 0.30
     Davidson diagonalization with overlap
     ethr =  7.97E-12,  avg # of iterations =  1.0

     negative rho (up, down):  4.633E-03 0.000E+00

     total cpu time spent up to now is     5295.3 secs

     total energy              =   -1513.98374777 Ry
     estimated scf accuracy    <       0.00000002 Ry

     iteration # 25     ecut=    50.00 Ry     beta= 0.30
     Davidson diagonalization with overlap
     ethr =  7.97E-12,  avg # of iterations =  6.0

     negative rho (up, down):  4.634E-03 0.000E+00

     total cpu time spent up to now is     5576.4 secs

     total energy              =   -1513.98374777 Ry
     estimated scf accuracy    <       0.00000002 Ry

     iteration # 26     ecut=    50.00 Ry     beta= 0.30
     Davidson diagonalization with overlap
     ethr =  7.97E-12,  avg # of iterations =  5.1

     negative rho (up, down):  4.634E-03 0.000E+00

     total cpu time spent up to now is     5810.1 secs

     total energy              =   -1513.98374777 Ry
     estimated scf accuracy    <          8.9E-10 Ry

     iteration # 27     ecut=    50.00 Ry     beta= 0.30
     Davidson diagonalization with overlap
     ethr =  5.54E-13,  avg # of iterations =  6.3

     negative rho (up, down):  4.634E-03 0.000E+00

     total cpu time spent up to now is     6053.0 secs

     total energy              =   -1513.98374777 Ry
     estimated scf accuracy    <          1.8E-09 Ry

     iteration # 28     ecut=    50.00 Ry     beta= 0.30
     Davidson diagonalization with overlap
     ethr =  5.54E-13,  avg # of iterations =  6.5

     negative rho (up, down):  4.634E-03 0.000E+00

     total cpu time spent up to now is     6330.8 secs

     total energy              =   -1513.98374777 Ry
     estimated scf accuracy    <          5.0E-10 Ry

     iteration # 29     ecut=    50.00 Ry     beta= 0.30
     Davidson diagonalization with overlap
     ethr =  3.10E-13,  avg # of iterations =  2.1

     negative rho (up, down):  4.634E-03 0.000E+00

     total cpu time spent up to now is     6484.9 secs

     total energy              =   -1513.98374777 Ry
     estimated scf accuracy    <          2.5E-10 Ry

     iteration # 30     ecut=    50.00 Ry     beta= 0.30
     Davidson diagonalization with overlap
     ethr =  1.53E-13,  avg # of iterations =  2.0

     negative rho (up, down):  4.634E-03 0.000E+00

     total cpu time spent up to now is     6636.4 secs

     total energy              =   -1513.98374777 Ry
     estimated scf accuracy    <          1.0E-10 Ry

     iteration # 31     ecut=    50.00 Ry     beta= 0.30
     Davidson diagonalization with overlap
     ethr =  1.00E-13,  avg # of iterations =  6.7

     negative rho (up, down):  4.634E-03 0.000E+00

     total cpu time spent up to now is     6853.5 secs

     End of self-consistent calculation

     Number of k-points >= 100: set verbosity='high' to print the bands.

     highest occupied level (ev):     9.0432

!    total energy              =   -1513.98374777 Ry
     estimated scf accuracy    <          2.0E-11 Ry

     The total energy is the sum of the following terms:
     one-electron contribution =    -323.24915394 Ry
     hartree contribution      =     249.21724816 Ry
     xc contribution           =    -211.00746556 Ry
     ewald contribution        =    -874.82826118 Ry
     one-center paw contrib.   =    -354.11611524 Ry

     convergence has been achieved in  31 iterations

     negative rho (up, down):  4.634E-03 0.000E+00

     Forces acting on atoms (cartesian axes, Ry/au):

     atom    1 type  1   force =    -0.00058046   -0.00084539   -0.00000009
     atom    2 type  1   force =     0.00058050    0.00084539    0.00000009
     atom    3 type  1   force =     0.00058037   -0.00084542   -0.00000010
     atom    4 type  1   force =    -0.00058040    0.00084540    0.00000011
     atom    5 type  2   force =    -0.00000001   -0.00000004    0.00000004
     atom    6 type  2   force =    -0.00000000   -0.00000004   -0.00000005
     atom    7 type  2   force =    -0.00000000    0.00000005    0.00000004
     atom    8 type  2   force =    -0.00000000    0.00000004   -0.00000004
     atom    9 type  3   force =     0.00190406   -0.00066513   -0.00000002
     atom   10 type  3   force =    -0.00190406    0.00066512    0.00000002
     atom   11 type  3   force =    -0.00190406   -0.00066513   -0.00000002
     atom   12 type  3   force =     0.00190408    0.00066514    0.00000002
     atom   13 type  3   force =     0.00083117    0.00135528   -0.00183145
     atom   14 type  3   force =    -0.00083114   -0.00135530   -0.00183146
     atom   15 type  3   force =    -0.00083117   -0.00135528    0.00183144
     atom   16 type  3   force =     0.00083113    0.00135531    0.00183147
     atom   17 type  3   force =    -0.00083111    0.00135534   -0.00183146
     atom   18 type  3   force =     0.00083113   -0.00135530   -0.00183146
     atom   19 type  3   force =     0.00083112   -0.00135533    0.00183145
     atom   20 type  3   force =    -0.00083112    0.00135530    0.00183145

     Total force =     0.008218     Total SCF correction =     0.000012


     Computing stress (Cartesian axis) and pressure


     negative rho (up, down):  4.634E-03 0.000E+00
          total   stress  (Ry/bohr**3)                   (kbar)     P=       30.03
   0.00019566  -0.00000000   0.00000000           28.78       -0.00        0.00
  -0.00000000   0.00020733   0.00000000           -0.00       30.50        0.00
   0.00000000   0.00000000   0.00020947            0.00        0.00       30.81


     Writing output data file ./out/CaO3Ti.save/

     init_run     :     75.92s CPU     76.66s WALL (       1 calls)
     electrons    :   6737.23s CPU   6776.26s WALL (       1 calls)
     forces       :     44.01s CPU     44.11s WALL (       1 calls)
     stress       :     56.66s CPU     56.81s WALL (       1 calls)

     Called by init_run:
     wfcinit      :     71.19s CPU     71.80s WALL (       1 calls)
     potinit      :      1.93s CPU      1.98s WALL (       1 calls)
     hinit0       :      2.37s CPU      2.38s WALL (       1 calls)

     Called by electrons:
     c_bands      :   6270.68s CPU   6302.50s WALL (      31 calls)
     sum_band     :    427.96s CPU    433.75s WALL (      31 calls)
     v_of_rho     :      3.00s CPU      3.06s WALL (      32 calls)
     newd         :     11.63s CPU     13.03s WALL (      32 calls)
     PAW_pot      :     24.32s CPU     24.35s WALL (      32 calls)
     mix_rho      :      0.52s CPU      0.53s WALL (      31 calls)

     Called by c_bands:
     init_us_2    :     14.42s CPU     14.45s WALL (    3640 calls)
     cegterg      :   5992.59s CPU   6024.25s WALL (    1736 calls)

     Called by *egterg:
     cdiaghg      :    260.11s CPU    262.10s WALL (    9706 calls)
     h_psi        :   2453.72s CPU   2481.40s WALL (    9762 calls)
     s_psi        :    947.77s CPU    948.07s WALL (    9762 calls)
     g_psi        :      5.85s CPU      5.88s WALL (    7970 calls)

     Called by h_psi:
     h_psi:calbec :    937.40s CPU    938.60s WALL (    9762 calls)
     vloc_psi     :    559.97s CPU    586.22s WALL (    9762 calls)
     add_vuspsi   :    952.28s CPU    952.51s WALL (    9762 calls)

     General routines
     calbec       :   1293.71s CPU   1295.26s WALL (   11778 calls)
     fft          :      2.30s CPU      2.38s WALL (     439 calls)
     ffts         :      0.07s CPU      0.07s WALL (      63 calls)
     fftw         :    556.05s CPU    581.57s WALL (  988098 calls)
     interpolate  :      0.19s CPU      0.21s WALL (      32 calls)

     Parallel routines
     fft_scatt_xy :     79.12s CPU     83.12s WALL (  988600 calls)
     fft_scatt_yz :    103.80s CPU    109.34s WALL (  988600 calls)

     PWSCF        :      1h55m CPU      1h55m WALL


   This run was terminated on:  18:38:36   1Jul2026            

=------------------------------------------------------------------------------=
   JOB DONE.
=------------------------------------------------------------------------------=
