
     Program DYNMAT v.6.7MaX starts on  1Jul2026 at  6: 5:11 

     This program is part of the open-source Quantum ESPRESSO suite
     for quantum simulation of materials; please cite
         "P. Giannozzi et al., J. Phys.:Condens. Matter 21 395502 (2009);
         "P. Giannozzi et al., J. Phys.:Condens. Matter 29 465901 (2017);
          URL http://www.quantum-espresso.org", 
     in publications or presentations arising from this work. More details at
     http://www.quantum-espresso.org/quote

     Parallel version (MPI), running on     1 processors

     MPI processes distributed on     1 nodes

     Reading Dynamical Matrix from file O2Si.dyn
     ...Force constants read
     ...epsilon and Z* read
     A direction for q was not specified:TO-LO splitting will be absent
     Max |d(i,j)-d*(j,i)| =  0.004589
     Max |d(i,j)-d*(j,i)|/|d(i,j)|:   1.3546%

     Polarizability (A^3 units)
     multiply by 0.671156 for Clausius-Mossotti correction
        13.183155    0.000058   -0.000001
         0.000058   13.183430   -0.000002
        -0.000001   -0.000002   13.505942

     IR activities are in (D/A)^2/amu units

# mode   [cm-1]    [THz]      IR
    1     -3.85   -0.1154    0.0002
    2     -2.68   -0.0805    0.0000
    3     -2.58   -0.0773    0.0000
    4     98.67    2.9580    0.0004
    5     98.72    2.9594    0.0003
    6    196.17    5.8809    0.0000
    7    243.17    7.2900    0.2001
    8    245.75    7.3673    0.2090
    9    334.54   10.0293    0.0001
   10    339.27   10.1712    4.7774
   11    372.76   11.1750    3.4786
   12    372.76   11.1752    3.4464
   13    424.35   12.7216    7.5874
   14    424.54   12.7274    7.6319
   15    448.48   13.4450    0.0008
   16    469.26   14.0682    8.6889
   17    691.60   20.7336    0.6891
   18    691.93   20.7436    0.6804
   19    774.34   23.2142    3.7319
   20    790.48   23.6979    3.3780
   21    790.69   23.7042    3.4069
   22   1080.84   32.4028   42.1478
   23   1080.97   32.4067   42.1764
   24   1091.05   32.7089   44.5142
   25   1097.05   32.8887    0.0004
   26   1168.16   35.0206    0.5422
   27   1168.17   35.0209    0.5518

     DYNMAT       :      0.01s CPU      0.01s WALL


   This run was terminated on:   6: 5:11   1Jul2026            

=------------------------------------------------------------------------------=
   JOB DONE.
=------------------------------------------------------------------------------=
