
     Program PHONON v.6.7MaX starts on  1Jul2026 at  4:28:24 

     This program is part of the open-source Quantum ESPRESSO suite
     for quantum simulation of materials; please cite
         "P. Giannozzi et al., J. Phys.:Condens. Matter 21 395502 (2009);
         "P. Giannozzi et al., J. Phys.:Condens. Matter 29 465901 (2017);
          URL http://www.quantum-espresso.org", 
     in publications or presentations arising from this work. More details at
     http://www.quantum-espresso.org/quote

     Parallel version (MPI), running on     8 processors

     MPI processes distributed on     1 nodes
     R & G space division:  proc/nbgrp/npool/nimage =       8
     Waiting for input...
     Reading input from standard input
      Title line not specified: using 'default'.

     Reading xml data from directory:

     ./out/O2Si.save/
     file Si.pbe-n-kjpaw_psl.1.0.0.UPF: wavefunction(s)  3S 3P renormalized
     file O.pbe-n-kjpaw_psl.0.1.UPF: wavefunction(s)  2P renormalized

     IMPORTANT: XC functional enforced from input :
     Exchange-correlation= PBE
                           (   1   4   3   4   0   0   0)
     Any further DFT definition will be discarded
     Please, verify this is what you really want


     Parallelization info
     --------------------
     sticks:   dense  smooth     PW     G-vecs:    dense   smooth      PW
     Min         297     148     45                12949     4562     770
     Max         298     149     46                12954     4565     772
     Sum        2383    1189    367               103607    36503    6163


     Check: negative core charge=   -0.000002
     Reading collected, re-writing distributed wavefunctions

     Calculation of q =    0.0000000   0.0000000   0.0000000

     default                                                                    

     bravais-lattice index     =            0
     lattice parameter (alat)  =       9.2879  a.u.
     unit-cell volume          =     766.7826 (a.u.)^3
     number of atoms/cell      =            9
     number of atomic types    =            2
     kinetic-energy cut-off    =      50.0000  Ry
     charge density cut-off    =     400.0000  Ry
     convergence threshold     =      1.0E-12
     beta                      =       0.7000
     number of iterations used =            4
     Exchange-correlation= PBE
                           (   1   4   3   4   0   0   0)


     celldm(1)=    9.28794  celldm(2)=    0.00000  celldm(3)=    0.00000
     celldm(4)=    0.00000  celldm(5)=    0.00000  celldm(6)=    0.00000

     crystal axes: (cart. coord. in units of alat)
               a(1) = (  1.0000 -0.0000  0.0000 )  
               a(2) = ( -0.5000  0.8660  0.0000 )  
               a(3) = (  0.0000  0.0000  1.1051 )  

     reciprocal axes: (cart. coord. in units 2 pi/alat)
               b(1) = (  1.0000  0.5774 -0.0000 )  
               b(2) = (  0.0000  1.1547 -0.0000 )  
               b(3) = ( -0.0000 -0.0000  0.9049 )  


     Atoms inside the unit cell: 

     Cartesian axes

     site n.  atom      mass           positions (alat units)
        1     Si  28.0850   tau(    1) = (    0.26554    0.45994    0.00000  )
        2     Si  28.0850   tau(    2) = (   -0.23446    0.40609    0.73670  )
        3     Si  28.0850   tau(    3) = (    0.46891   -0.00000    0.36835  )
        4     O   15.9990   tau(    4) = (    0.06253    0.35801    0.86735  )
        5     O   15.9990   tau(    5) = (    0.15869    0.74117    0.13064  )
        6     O   15.9990   tau(    6) = (   -0.22122    0.63287    0.49900  )
        7     O   15.9990   tau(    7) = (    0.27878    0.23315    0.23771  )
        8     O   15.9990   tau(    8) = (    0.65869    0.12486    0.60606  )
        9     O   15.9990   tau(    9) = (    0.56253    0.50802    0.97441  )

     Computing dynamical matrix for 
                    q = (   0.0000000   0.0000000   0.0000000 )

      2 Sym.Ops. (with q -> -q+G )


     G cutoff =  874.0555  (  12954 G-vectors)     FFT grid: ( 60, 60, 72)
     G cutoff =  437.0278  (   4565 G-vectors)  smooth grid: ( 45, 45, 48)
     number of k points=    36
                       cart. coord. in units 2pi/alat
        k(    1) = (   0.0000000   0.0000000   0.0000000), wk =   0.0312500
        k(    2) = (   0.0000000   0.0000000   0.2262334), wk =   0.0625000
        k(    3) = (   0.0000000   0.0000000  -0.4524667), wk =   0.0312500
        k(    4) = (   0.0000000   0.2886751   0.0000000), wk =   0.0625000
        k(    5) = (   0.0000000   0.2886751   0.2262334), wk =   0.0625000
        k(    6) = (   0.0000000   0.2886751  -0.4524667), wk =   0.0625000
        k(    7) = (   0.0000000   0.2886751  -0.2262334), wk =   0.0625000
        k(    8) = (  -0.0000000  -0.5773502   0.0000000), wk =   0.0312500
        k(    9) = (  -0.0000000  -0.5773502   0.2262334), wk =   0.0625000
        k(   10) = (  -0.0000000  -0.5773502  -0.4524667), wk =   0.0312500
        k(   11) = (   0.2500000   0.1443375   0.0000000), wk =   0.0625000
        k(   12) = (   0.2500000   0.1443375   0.2262334), wk =   0.0625000
        k(   13) = (   0.2500000   0.1443375  -0.4524667), wk =   0.0625000
        k(   14) = (   0.2500000   0.1443375  -0.2262334), wk =   0.0625000
        k(   15) = (   0.2500000   0.4330126   0.0000000), wk =   0.0625000
        k(   16) = (   0.2500000   0.4330126   0.2262334), wk =   0.0625000
        k(   17) = (   0.2500000   0.4330126  -0.4524667), wk =   0.0625000
        k(   18) = (   0.2500000   0.4330126  -0.2262334), wk =   0.0625000
        k(   19) = (   0.2500000  -0.4330127   0.0000000), wk =   0.0625000
        k(   20) = (   0.2500000  -0.4330127   0.2262334), wk =   0.0625000
        k(   21) = (   0.2500000  -0.4330127  -0.4524667), wk =   0.0625000
        k(   22) = (   0.2500000  -0.4330127  -0.2262334), wk =   0.0625000
        k(   23) = (   0.2500000  -0.1443376   0.0000000), wk =   0.0625000
        k(   24) = (   0.2500000  -0.1443376   0.2262334), wk =   0.0625000
        k(   25) = (   0.2500000  -0.1443376  -0.4524667), wk =   0.0625000
        k(   26) = (   0.2500000  -0.1443376  -0.2262334), wk =   0.0625000
        k(   27) = (  -0.5000000  -0.2886750   0.0000000), wk =   0.0312500
        k(   28) = (  -0.5000000  -0.2886750   0.2262334), wk =   0.0625000
        k(   29) = (  -0.5000000  -0.2886750  -0.4524667), wk =   0.0312500
        k(   30) = (  -0.5000000   0.0000001   0.0000000), wk =   0.0625000
        k(   31) = (  -0.5000000   0.0000001   0.2262334), wk =   0.0625000
        k(   32) = (  -0.5000000   0.0000001  -0.4524667), wk =   0.0625000
        k(   33) = (  -0.5000000   0.0000001  -0.2262334), wk =   0.0625000
        k(   34) = (  -0.5000000  -0.8660252   0.0000000), wk =   0.0312500
        k(   35) = (  -0.5000000  -0.8660252   0.2262334), wk =   0.0625000
        k(   36) = (  -0.5000000  -0.8660252  -0.4524667), wk =   0.0312500

     PseudoPot. # 1 for Si read from file:
     /data/pseudopotentials/Si.pbe-n-kjpaw_psl.1.0.0.UPF
     MD5 check sum: c39c59da582df4a0d9f10159256ea34e
     Pseudo is Projector augmented-wave + core cor, Zval =  4.0
     Generated using &quot;atomic&quot; code by A. Dal Corso  v.6.3
     Shape of augmentation charge: PSQ
     Using radial grid of 1141 points,  6 beta functions with: 
                l(1) =   0
                l(2) =   0
                l(3) =   1
                l(4) =   1
                l(5) =   2
                l(6) =   2
     Q(r) pseudized with 0 coefficients 


     PseudoPot. # 2 for O  read from file:
     /data/pseudopotentials/O.pbe-n-kjpaw_psl.0.1.UPF
     MD5 check sum: 833c495a5d0f9b75bf046115549bffff
     Pseudo is Projector augmented-wave + core cor, Zval =  6.0
     Generated using &quot;atomic&quot; code by A. Dal Corso  v.6.3
     Shape of augmentation charge: BESSEL
     Using radial grid of 1095 points,  4 beta functions with: 
                l(1) =   0
                l(2) =   0
                l(3) =   1
                l(4) =   1
     Q(r) pseudized with 0 coefficients 


     Mode symmetry, C_1 (1)     point group:


     Electric field:
     Dielectric constant
     Born effective charges as d Force / d E


     Atomic displacements:
     There are   27 irreducible representations

     Representation     1      1 modes -  To be done

     Representation     2      1 modes -  To be done

     Representation     3      1 modes -  To be done

     Representation     4      1 modes -  To be done

     Representation     5      1 modes -  To be done

     Representation     6      1 modes -  To be done

     Representation     7      1 modes -  To be done

     Representation     8      1 modes -  To be done

     Representation     9      1 modes -  To be done

     Representation    10      1 modes -  To be done

     Representation    11      1 modes -  To be done

     Representation    12      1 modes -  To be done

     Representation    13      1 modes -  To be done

     Representation    14      1 modes -  To be done

     Representation    15      1 modes -  To be done

     Representation    16      1 modes -  To be done

     Representation    17      1 modes -  To be done

     Representation    18      1 modes -  To be done

     Representation    19      1 modes -  To be done

     Representation    20      1 modes -  To be done

     Representation    21      1 modes -  To be done

     Representation    22      1 modes -  To be done

     Representation    23      1 modes -  To be done

     Representation    24      1 modes -  To be done

     Representation    25      1 modes -  To be done

     Representation    26      1 modes -  To be done

     Representation    27      1 modes -  To be done



     Alpha used in Ewald sum =   2.8000
     PHONON       :     33.99s CPU     34.87s WALL


     Electric Fields Calculation

      iter #   1 total cpu time :   216.7 secs   av.it.:   7.0
      thresh= 1.000E-02 alpha_mix =  0.700 |ddv_scf|^2 =  2.141E-08

      iter #   2 total cpu time :   299.9 secs   av.it.:  14.0
      thresh= 1.463E-05 alpha_mix =  0.700 |ddv_scf|^2 =  1.112E-08

      iter #   3 total cpu time :   382.3 secs   av.it.:  13.8
      thresh= 1.054E-05 alpha_mix =  0.700 |ddv_scf|^2 =  1.736E-09

      iter #   4 total cpu time :   463.9 secs   av.it.:  13.7
      thresh= 4.167E-06 alpha_mix =  0.700 |ddv_scf|^2 =  4.659E-11

      iter #   5 total cpu time :   543.1 secs   av.it.:  13.1
      thresh= 6.826E-07 alpha_mix =  0.700 |ddv_scf|^2 =  9.750E-12

      iter #   6 total cpu time :   624.6 secs   av.it.:  13.6
      thresh= 3.123E-07 alpha_mix =  0.700 |ddv_scf|^2 =  2.420E-13

     End of electric fields calculation

          Dielectric constant in cartesian axis 

          (       2.457986866       0.000006391      -0.000000083 )
          (       0.000006398       2.458017277      -0.000000195 )
          (      -0.000000072      -0.000000193       2.493685387 )

          Effective charges (d Force / dE) in cartesian axis

           atom      1   Si 
      Ex  (        3.50612       -0.28802        0.26755 )
      Ey  (       -0.28802        3.17354       -0.15447 )
      Ez  (       -0.23502        0.13569        3.47061 )
           atom      2   Si 
      Ex  (        3.50613        0.28802       -0.26755 )
      Ey  (        0.28802        3.17354       -0.15447 )
      Ez  (        0.23501        0.13569        3.47061 )
           atom      3   Si 
      Ex  (        3.00725       -0.00000       -0.00000 )
      Ey  (       -0.00000        3.67241        0.30894 )
      Ez  (       -0.00000       -0.27137        3.47061 )
           atom      4   O  
      Ex  (       -2.27874       -0.08544       -0.80715 )
      Ey  (       -0.02669       -1.05628       -0.06532 )
      Ez  (       -0.80776       -0.14101       -1.73423 )
           atom      5   O  
      Ex  (       -1.41047        0.52802        0.46014 )
      Ey  (        0.58680       -1.92466       -0.66635 )
      Ez  (        0.52600       -0.62904       -1.73422 )
           atom      6   O  
      Ex  (       -1.31338       -0.53076        0.34701 )
      Ey  (       -0.47198       -2.02181        0.73168 )
      Ez  (        0.28176        0.77004       -1.73423 )
           atom      7   O  
      Ex  (       -1.31337        0.53073       -0.34700 )
      Ey  (        0.47197       -2.02177        0.73167 )
      Ez  (       -0.28176        0.77004       -1.73423 )
           atom      8   O  
      Ex  (       -1.41049       -0.52806       -0.46015 )
      Ey  (       -0.58684       -1.92469       -0.66636 )
      Ez  (       -0.52600       -0.62904       -1.73422 )
           atom      9   O  
      Ex  (       -2.27873        0.08543        0.80715 )
      Ey  (        0.02667       -1.05628       -0.06532 )
      Ez  (        0.80776       -0.14101       -1.73422 )


     Representation #   1 mode #   1

     Self-consistent Calculation

      iter #   1 total cpu time :   873.5 secs   av.it.:   5.8
      thresh= 1.000E-02 alpha_mix =  0.700 |ddv_scf|^2 =  7.846E-08

      iter #   2 total cpu time :   899.9 secs   av.it.:  12.9
      thresh= 2.801E-05 alpha_mix =  0.700 |ddv_scf|^2 =  5.009E-08

      iter #   3 total cpu time :   925.0 secs   av.it.:  12.7
      thresh= 2.238E-05 alpha_mix =  0.700 |ddv_scf|^2 =  4.632E-09

      iter #   4 total cpu time :   950.2 secs   av.it.:  12.4
      thresh= 6.806E-06 alpha_mix =  0.700 |ddv_scf|^2 =  1.584E-10

      iter #   5 total cpu time :   975.7 secs   av.it.:  12.5
      thresh= 1.258E-06 alpha_mix =  0.700 |ddv_scf|^2 =  4.202E-11

      iter #   6 total cpu time :  1002.1 secs   av.it.:  12.9
      thresh= 6.482E-07 alpha_mix =  0.700 |ddv_scf|^2 =  1.881E-11

      iter #   7 total cpu time :  1027.8 secs   av.it.:  12.4
      thresh= 4.337E-07 alpha_mix =  0.700 |ddv_scf|^2 =  6.331E-13

     End of self-consistent calculation

     Convergence has been achieved 


     Representation #   2 mode #   2

     Self-consistent Calculation

      iter #   1 total cpu time :  1043.7 secs   av.it.:   5.8
      thresh= 1.000E-02 alpha_mix =  0.700 |ddv_scf|^2 =  8.211E-08

      iter #   2 total cpu time :  1070.2 secs   av.it.:  13.0
      thresh= 2.865E-05 alpha_mix =  0.700 |ddv_scf|^2 =  6.053E-08

      iter #   3 total cpu time :  1096.0 secs   av.it.:  12.6
      thresh= 2.460E-05 alpha_mix =  0.700 |ddv_scf|^2 =  4.380E-09

      iter #   4 total cpu time :  1121.4 secs   av.it.:  12.4
      thresh= 6.618E-06 alpha_mix =  0.700 |ddv_scf|^2 =  1.427E-10

      iter #   5 total cpu time :  1146.7 secs   av.it.:  12.3
      thresh= 1.195E-06 alpha_mix =  0.700 |ddv_scf|^2 =  3.132E-11

      iter #   6 total cpu time :  1173.3 secs   av.it.:  12.9
      thresh= 5.597E-07 alpha_mix =  0.700 |ddv_scf|^2 =  1.576E-11

      iter #   7 total cpu time :  1199.1 secs   av.it.:  12.6
      thresh= 3.970E-07 alpha_mix =  0.700 |ddv_scf|^2 =  5.906E-13

     End of self-consistent calculation

     Convergence has been achieved 


     Representation #   3 mode #   3

     Self-consistent Calculation

      iter #   1 total cpu time :  1215.0 secs   av.it.:   5.8
      thresh= 1.000E-02 alpha_mix =  0.700 |ddv_scf|^2 =  1.109E-07

      iter #   2 total cpu time :  1240.8 secs   av.it.:  12.8
      thresh= 3.331E-05 alpha_mix =  0.700 |ddv_scf|^2 =  6.690E-08

      iter #   3 total cpu time :  1265.9 secs   av.it.:  12.5
      thresh= 2.587E-05 alpha_mix =  0.700 |ddv_scf|^2 =  4.629E-09

      iter #   4 total cpu time :  1291.0 secs   av.it.:  12.5
      thresh= 6.803E-06 alpha_mix =  0.700 |ddv_scf|^2 =  1.951E-10

      iter #   5 total cpu time :  1316.2 secs   av.it.:  12.6
      thresh= 1.397E-06 alpha_mix =  0.700 |ddv_scf|^2 =  5.389E-11

      iter #   6 total cpu time :  1341.8 secs   av.it.:  12.8
      thresh= 7.341E-07 alpha_mix =  0.700 |ddv_scf|^2 =  1.603E-11

      iter #   7 total cpu time :  1367.2 secs   av.it.:  12.6
      thresh= 4.003E-07 alpha_mix =  0.700 |ddv_scf|^2 =  5.086E-13

     End of self-consistent calculation

     Convergence has been achieved 


     Representation #   4 mode #   4

     Self-consistent Calculation

      iter #   1 total cpu time :  1382.9 secs   av.it.:   5.8
      thresh= 1.000E-02 alpha_mix =  0.700 |ddv_scf|^2 =  7.846E-08

      iter #   2 total cpu time :  1409.3 secs   av.it.:  12.9
      thresh= 2.801E-05 alpha_mix =  0.700 |ddv_scf|^2 =  5.009E-08

      iter #   3 total cpu time :  1434.9 secs   av.it.:  12.7
      thresh= 2.238E-05 alpha_mix =  0.700 |ddv_scf|^2 =  4.632E-09

      iter #   4 total cpu time :  1460.3 secs   av.it.:  12.4
      thresh= 6.806E-06 alpha_mix =  0.700 |ddv_scf|^2 =  1.584E-10

      iter #   5 total cpu time :  1485.5 secs   av.it.:  12.5
      thresh= 1.258E-06 alpha_mix =  0.700 |ddv_scf|^2 =  4.201E-11

      iter #   6 total cpu time :  1510.7 secs   av.it.:  12.9
      thresh= 6.482E-07 alpha_mix =  0.700 |ddv_scf|^2 =  1.882E-11

      iter #   7 total cpu time :  1535.9 secs   av.it.:  12.4
      thresh= 4.338E-07 alpha_mix =  0.700 |ddv_scf|^2 =  6.332E-13

     End of self-consistent calculation

     Convergence has been achieved 


     Representation #   5 mode #   5

     Self-consistent Calculation

      iter #   1 total cpu time :  1551.6 secs   av.it.:   5.8
      thresh= 1.000E-02 alpha_mix =  0.700 |ddv_scf|^2 =  8.211E-08

      iter #   2 total cpu time :  1578.0 secs   av.it.:  13.0
      thresh= 2.865E-05 alpha_mix =  0.700 |ddv_scf|^2 =  6.053E-08

      iter #   3 total cpu time :  1603.7 secs   av.it.:  12.6
      thresh= 2.460E-05 alpha_mix =  0.700 |ddv_scf|^2 =  4.380E-09

      iter #   4 total cpu time :  1628.9 secs   av.it.:  12.4
      thresh= 6.618E-06 alpha_mix =  0.700 |ddv_scf|^2 =  1.428E-10

      iter #   5 total cpu time :  1654.1 secs   av.it.:  12.3
      thresh= 1.195E-06 alpha_mix =  0.700 |ddv_scf|^2 =  3.133E-11

      iter #   6 total cpu time :  1680.3 secs   av.it.:  12.9
      thresh= 5.598E-07 alpha_mix =  0.700 |ddv_scf|^2 =  1.576E-11

      iter #   7 total cpu time :  1705.9 secs   av.it.:  12.6
      thresh= 3.970E-07 alpha_mix =  0.700 |ddv_scf|^2 =  5.904E-13

     End of self-consistent calculation

     Convergence has been achieved 


     Representation #   6 mode #   6

     Self-consistent Calculation

      iter #   1 total cpu time :  1721.8 secs   av.it.:   5.8
      thresh= 1.000E-02 alpha_mix =  0.700 |ddv_scf|^2 =  1.109E-07

      iter #   2 total cpu time :  1747.7 secs   av.it.:  12.8
      thresh= 3.331E-05 alpha_mix =  0.700 |ddv_scf|^2 =  6.690E-08

      iter #   3 total cpu time :  1773.1 secs   av.it.:  12.5
      thresh= 2.587E-05 alpha_mix =  0.700 |ddv_scf|^2 =  4.629E-09

      iter #   4 total cpu time :  1798.5 secs   av.it.:  12.5
      thresh= 6.803E-06 alpha_mix =  0.700 |ddv_scf|^2 =  1.951E-10

      iter #   5 total cpu time :  1824.1 secs   av.it.:  12.6
      thresh= 1.397E-06 alpha_mix =  0.700 |ddv_scf|^2 =  5.390E-11

      iter #   6 total cpu time :  1849.8 secs   av.it.:  12.8
      thresh= 7.341E-07 alpha_mix =  0.700 |ddv_scf|^2 =  1.602E-11

      iter #   7 total cpu time :  1875.3 secs   av.it.:  12.6
      thresh= 4.003E-07 alpha_mix =  0.700 |ddv_scf|^2 =  5.085E-13

     End of self-consistent calculation

     Convergence has been achieved 


     Representation #   7 mode #   7

     Self-consistent Calculation

      iter #   1 total cpu time :  1891.1 secs   av.it.:   5.8
      thresh= 1.000E-02 alpha_mix =  0.700 |ddv_scf|^2 =  8.353E-08

      iter #   2 total cpu time :  1917.3 secs   av.it.:  12.8
      thresh= 2.890E-05 alpha_mix =  0.700 |ddv_scf|^2 =  6.576E-08

      iter #   3 total cpu time :  1942.7 secs   av.it.:  12.4
      thresh= 2.564E-05 alpha_mix =  0.700 |ddv_scf|^2 =  4.165E-09

      iter #   4 total cpu time :  1967.8 secs   av.it.:  12.2
      thresh= 6.454E-06 alpha_mix =  0.700 |ddv_scf|^2 =  1.288E-10

      iter #   5 total cpu time :  1991.8 secs   av.it.:  11.5
      thresh= 1.135E-06 alpha_mix =  0.700 |ddv_scf|^2 =  1.751E-11

      iter #   6 total cpu time :  2017.3 secs   av.it.:  12.6
      thresh= 4.185E-07 alpha_mix =  0.700 |ddv_scf|^2 =  5.738E-12

      iter #   7 total cpu time :  2043.2 secs   av.it.:  12.8
      thresh= 2.395E-07 alpha_mix =  0.700 |ddv_scf|^2 =  7.916E-13

     End of self-consistent calculation

     Convergence has been achieved 


     Representation #   8 mode #   8

     Self-consistent Calculation

      iter #   1 total cpu time :  2058.8 secs   av.it.:   5.7
      thresh= 1.000E-02 alpha_mix =  0.700 |ddv_scf|^2 =  7.695E-08

      iter #   2 total cpu time :  2084.9 secs   av.it.:  12.9
      thresh= 2.774E-05 alpha_mix =  0.700 |ddv_scf|^2 =  4.482E-08

      iter #   3 total cpu time :  2110.6 secs   av.it.:  12.7
      thresh= 2.117E-05 alpha_mix =  0.700 |ddv_scf|^2 =  4.749E-09

      iter #   4 total cpu time :  2136.0 secs   av.it.:  12.4
      thresh= 6.891E-06 alpha_mix =  0.700 |ddv_scf|^2 =  1.675E-10

      iter #   5 total cpu time :  2161.2 secs   av.it.:  12.4
      thresh= 1.294E-06 alpha_mix =  0.700 |ddv_scf|^2 =  3.928E-11

      iter #   6 total cpu time :  2186.5 secs   av.it.:  12.9
      thresh= 6.267E-07 alpha_mix =  0.700 |ddv_scf|^2 =  2.068E-11

      iter #   7 total cpu time :  2211.6 secs   av.it.:  12.4
      thresh= 4.547E-07 alpha_mix =  0.700 |ddv_scf|^2 =  6.952E-13

     End of self-consistent calculation

     Convergence has been achieved 


     Representation #   9 mode #   9

     Self-consistent Calculation

      iter #   1 total cpu time :  2227.1 secs   av.it.:   5.8
      thresh= 1.000E-02 alpha_mix =  0.700 |ddv_scf|^2 =  1.126E-07

      iter #   2 total cpu time :  2253.0 secs   av.it.:  12.8
      thresh= 3.356E-05 alpha_mix =  0.700 |ddv_scf|^2 =  6.694E-08

      iter #   3 total cpu time :  2278.4 secs   av.it.:  12.5
      thresh= 2.587E-05 alpha_mix =  0.700 |ddv_scf|^2 =  4.770E-09

      iter #   4 total cpu time :  2303.9 secs   av.it.:  12.5
      thresh= 6.907E-06 alpha_mix =  0.700 |ddv_scf|^2 =  1.995E-10

      iter #   5 total cpu time :  2329.5 secs   av.it.:  12.6
      thresh= 1.413E-06 alpha_mix =  0.700 |ddv_scf|^2 =  5.593E-11

      iter #   6 total cpu time :  2355.3 secs   av.it.:  12.8
      thresh= 7.479E-07 alpha_mix =  0.700 |ddv_scf|^2 =  1.751E-11

      iter #   7 total cpu time :  2380.6 secs   av.it.:  12.6
      thresh= 4.184E-07 alpha_mix =  0.700 |ddv_scf|^2 =  5.633E-13

     End of self-consistent calculation

     Convergence has been achieved 


     Representation #  10 mode #  10

     Self-consistent Calculation

      iter #   1 total cpu time :  2398.2 secs   av.it.:   6.9
      thresh= 1.000E-02 alpha_mix =  0.700 |ddv_scf|^2 =  1.105E-06

      iter #   2 total cpu time :  2423.9 secs   av.it.:  12.7
      thresh= 1.051E-04 alpha_mix =  0.700 |ddv_scf|^2 =  2.530E-07

      iter #   3 total cpu time :  2448.6 secs   av.it.:  12.0
      thresh= 5.030E-05 alpha_mix =  0.700 |ddv_scf|^2 =  6.893E-09

      iter #   4 total cpu time :  2474.2 secs   av.it.:  12.6
      thresh= 8.303E-06 alpha_mix =  0.700 |ddv_scf|^2 =  9.351E-10

      iter #   5 total cpu time :  2500.0 secs   av.it.:  12.8
      thresh= 3.058E-06 alpha_mix =  0.700 |ddv_scf|^2 =  5.695E-11

      iter #   6 total cpu time :  2525.6 secs   av.it.:  12.7
      thresh= 7.547E-07 alpha_mix =  0.700 |ddv_scf|^2 =  2.251E-12

      iter #   7 total cpu time :  2551.7 secs   av.it.:  12.9
      thresh= 1.500E-07 alpha_mix =  0.700 |ddv_scf|^2 =  1.398E-12

      iter #   8 total cpu time :  2577.0 secs   av.it.:  12.4
      thresh= 1.183E-07 alpha_mix =  0.700 |ddv_scf|^2 =  1.409E-14

     End of self-consistent calculation

     Convergence has been achieved 


     Representation #  11 mode #  11

     Self-consistent Calculation

      iter #   1 total cpu time :  2594.1 secs   av.it.:   6.2
      thresh= 1.000E-02 alpha_mix =  0.700 |ddv_scf|^2 =  7.367E-07

      iter #   2 total cpu time :  2619.5 secs   av.it.:  12.6
      thresh= 8.583E-05 alpha_mix =  0.700 |ddv_scf|^2 =  3.351E-08

      iter #   3 total cpu time :  2645.5 secs   av.it.:  12.9
      thresh= 1.831E-05 alpha_mix =  0.700 |ddv_scf|^2 =  7.613E-09

      iter #   4 total cpu time :  2671.0 secs   av.it.:  12.6
      thresh= 8.725E-06 alpha_mix =  0.700 |ddv_scf|^2 =  3.733E-10

      iter #   5 total cpu time :  2696.5 secs   av.it.:  12.6
      thresh= 1.932E-06 alpha_mix =  0.700 |ddv_scf|^2 =  2.500E-11

      iter #   6 total cpu time :  2722.5 secs   av.it.:  12.9
      thresh= 5.000E-07 alpha_mix =  0.700 |ddv_scf|^2 =  3.424E-12

      iter #   7 total cpu time :  2748.6 secs   av.it.:  12.9
      thresh= 1.850E-07 alpha_mix =  0.700 |ddv_scf|^2 =  7.524E-13

     End of self-consistent calculation

     Convergence has been achieved 


     Representation #  12 mode #  12

     Self-consistent Calculation

      iter #   1 total cpu time :  2766.1 secs   av.it.:   6.7
      thresh= 1.000E-02 alpha_mix =  0.700 |ddv_scf|^2 =  1.321E-06

      iter #   2 total cpu time :  2791.5 secs   av.it.:  12.5
      thresh= 1.150E-04 alpha_mix =  0.700 |ddv_scf|^2 =  3.055E-07

      iter #   3 total cpu time :  2816.2 secs   av.it.:  12.1
      thresh= 5.527E-05 alpha_mix =  0.700 |ddv_scf|^2 =  1.037E-08

      iter #   4 total cpu time :  2842.0 secs   av.it.:  12.8
      thresh= 1.018E-05 alpha_mix =  0.700 |ddv_scf|^2 =  2.035E-09

      iter #   5 total cpu time :  2867.4 secs   av.it.:  12.5
      thresh= 4.511E-06 alpha_mix =  0.700 |ddv_scf|^2 =  2.900E-11

      iter #   6 total cpu time :  2892.9 secs   av.it.:  12.6
      thresh= 5.386E-07 alpha_mix =  0.700 |ddv_scf|^2 =  4.424E-12

      iter #   7 total cpu time :  2918.9 secs   av.it.:  12.9
      thresh= 2.103E-07 alpha_mix =  0.700 |ddv_scf|^2 =  1.922E-12

      iter #   8 total cpu time :  2944.3 secs   av.it.:  12.5
      thresh= 1.386E-07 alpha_mix =  0.700 |ddv_scf|^2 =  1.355E-14

     End of self-consistent calculation

     Convergence has been achieved 


     Representation #  13 mode #  13

     Self-consistent Calculation

      iter #   1 total cpu time :  2961.5 secs   av.it.:   6.6
      thresh= 1.000E-02 alpha_mix =  0.700 |ddv_scf|^2 =  8.525E-07

      iter #   2 total cpu time :  2987.0 secs   av.it.:  12.7
      thresh= 9.233E-05 alpha_mix =  0.700 |ddv_scf|^2 =  1.036E-07

      iter #   3 total cpu time :  3012.2 secs   av.it.:  12.3
      thresh= 3.218E-05 alpha_mix =  0.700 |ddv_scf|^2 =  8.719E-09

      iter #   4 total cpu time :  3037.3 secs   av.it.:  12.4
      thresh= 9.338E-06 alpha_mix =  0.700 |ddv_scf|^2 =  6.579E-10

      iter #   5 total cpu time :  3062.7 secs   av.it.:  12.8
      thresh= 2.565E-06 alpha_mix =  0.700 |ddv_scf|^2 =  5.420E-11

      iter #   6 total cpu time :  3087.2 secs   av.it.:  12.7
      thresh= 7.362E-07 alpha_mix =  0.700 |ddv_scf|^2 =  3.251E-12

      iter #   7 total cpu time :  3112.8 secs   av.it.:  12.9
      thresh= 1.803E-07 alpha_mix =  0.700 |ddv_scf|^2 =  1.154E-12

      iter #   8 total cpu time :  3138.4 secs   av.it.:  12.8
      thresh= 1.074E-07 alpha_mix =  0.700 |ddv_scf|^2 =  4.061E-14

     End of self-consistent calculation

     Convergence has been achieved 


     Representation #  14 mode #  14

     Self-consistent Calculation

      iter #   1 total cpu time :  3155.8 secs   av.it.:   6.9
      thresh= 1.000E-02 alpha_mix =  0.700 |ddv_scf|^2 =  9.891E-07

      iter #   2 total cpu time :  3181.6 secs   av.it.:  12.7
      thresh= 9.945E-05 alpha_mix =  0.700 |ddv_scf|^2 =  1.826E-07

      iter #   3 total cpu time :  3206.5 secs   av.it.:  12.3
      thresh= 4.274E-05 alpha_mix =  0.700 |ddv_scf|^2 =  8.538E-09

      iter #   4 total cpu time :  3232.2 secs   av.it.:  12.8
      thresh= 9.240E-06 alpha_mix =  0.700 |ddv_scf|^2 =  1.277E-09

      iter #   5 total cpu time :  3257.7 secs   av.it.:  12.7
      thresh= 3.574E-06 alpha_mix =  0.700 |ddv_scf|^2 =  4.634E-11

      iter #   6 total cpu time :  3283.1 secs   av.it.:  12.6
      thresh= 6.807E-07 alpha_mix =  0.700 |ddv_scf|^2 =  3.156E-12

      iter #   7 total cpu time :  3309.2 secs   av.it.:  13.0
      thresh= 1.776E-07 alpha_mix =  0.700 |ddv_scf|^2 =  1.643E-12

      iter #   8 total cpu time :  3334.7 secs   av.it.:  12.5
      thresh= 1.282E-07 alpha_mix =  0.700 |ddv_scf|^2 =  2.319E-14

     End of self-consistent calculation

     Convergence has been achieved 


     Representation #  15 mode #  15

     Self-consistent Calculation

      iter #   1 total cpu time :  3352.1 secs   av.it.:   6.7
      thresh= 1.000E-02 alpha_mix =  0.700 |ddv_scf|^2 =  1.322E-06

      iter #   2 total cpu time :  3377.5 secs   av.it.:  12.5
      thresh= 1.150E-04 alpha_mix =  0.700 |ddv_scf|^2 =  3.055E-07

      iter #   3 total cpu time :  3402.0 secs   av.it.:  12.1
      thresh= 5.527E-05 alpha_mix =  0.700 |ddv_scf|^2 =  1.038E-08

      iter #   4 total cpu time :  3428.0 secs   av.it.:  12.8
      thresh= 1.019E-05 alpha_mix =  0.700 |ddv_scf|^2 =  2.033E-09

      iter #   5 total cpu time :  3453.5 secs   av.it.:  12.5
      thresh= 4.509E-06 alpha_mix =  0.700 |ddv_scf|^2 =  2.902E-11

      iter #   6 total cpu time :  3478.9 secs   av.it.:  12.6
      thresh= 5.387E-07 alpha_mix =  0.700 |ddv_scf|^2 =  4.427E-12

      iter #   7 total cpu time :  3505.0 secs   av.it.:  12.9
      thresh= 2.104E-07 alpha_mix =  0.700 |ddv_scf|^2 =  1.925E-12

      iter #   8 total cpu time :  3530.4 secs   av.it.:  12.5
      thresh= 1.387E-07 alpha_mix =  0.700 |ddv_scf|^2 =  1.354E-14

     End of self-consistent calculation

     Convergence has been achieved 


     Representation #  16 mode #  16

     Self-consistent Calculation

      iter #   1 total cpu time :  3547.6 secs   av.it.:   6.6
      thresh= 1.000E-02 alpha_mix =  0.700 |ddv_scf|^2 =  8.055E-07

      iter #   2 total cpu time :  3573.2 secs   av.it.:  12.6
      thresh= 8.975E-05 alpha_mix =  0.700 |ddv_scf|^2 =  7.286E-08

      iter #   3 total cpu time :  3599.0 secs   av.it.:  12.8
      thresh= 2.699E-05 alpha_mix =  0.700 |ddv_scf|^2 =  9.676E-09

      iter #   4 total cpu time :  3624.8 secs   av.it.:  12.8
      thresh= 9.837E-06 alpha_mix =  0.700 |ddv_scf|^2 =  1.053E-09

      iter #   5 total cpu time :  3650.3 secs   av.it.:  12.5
      thresh= 3.246E-06 alpha_mix =  0.700 |ddv_scf|^2 =  3.624E-11

      iter #   6 total cpu time :  3675.9 secs   av.it.:  12.5
      thresh= 6.020E-07 alpha_mix =  0.700 |ddv_scf|^2 =  3.190E-12

      iter #   7 total cpu time :  3702.2 secs   av.it.:  13.1
      thresh= 1.786E-07 alpha_mix =  0.700 |ddv_scf|^2 =  1.301E-12

      iter #   8 total cpu time :  3728.0 secs   av.it.:  12.6
      thresh= 1.141E-07 alpha_mix =  0.700 |ddv_scf|^2 =  3.127E-14

     End of self-consistent calculation

     Convergence has been achieved 


     Representation #  17 mode #  17

     Self-consistent Calculation

      iter #   1 total cpu time :  3745.6 secs   av.it.:   6.9
      thresh= 1.000E-02 alpha_mix =  0.700 |ddv_scf|^2 =  1.036E-06

      iter #   2 total cpu time :  3771.2 secs   av.it.:  12.7
      thresh= 1.018E-04 alpha_mix =  0.700 |ddv_scf|^2 =  2.134E-07

      iter #   3 total cpu time :  3795.7 secs   av.it.:  11.9
      thresh= 4.620E-05 alpha_mix =  0.700 |ddv_scf|^2 =  7.130E-09

      iter #   4 total cpu time :  3819.7 secs   av.it.:  12.3
      thresh= 8.444E-06 alpha_mix =  0.700 |ddv_scf|^2 =  6.392E-10

      iter #   5 total cpu time :  3845.1 secs   av.it.:  12.8
      thresh= 2.528E-06 alpha_mix =  0.700 |ddv_scf|^2 =  5.896E-11

      iter #   6 total cpu time :  3870.3 secs   av.it.:  12.7
      thresh= 7.678E-07 alpha_mix =  0.700 |ddv_scf|^2 =  1.924E-12

      iter #   7 total cpu time :  3896.0 secs   av.it.:  12.8
      thresh= 1.387E-07 alpha_mix =  0.700 |ddv_scf|^2 =  5.200E-13

     End of self-consistent calculation

     Convergence has been achieved 


     Representation #  18 mode #  18

     Self-consistent Calculation

      iter #   1 total cpu time :  3913.5 secs   av.it.:   6.7
      thresh= 1.000E-02 alpha_mix =  0.700 |ddv_scf|^2 =  1.321E-06

      iter #   2 total cpu time :  3938.9 secs   av.it.:  12.5
      thresh= 1.149E-04 alpha_mix =  0.700 |ddv_scf|^2 =  3.055E-07

      iter #   3 total cpu time :  3963.5 secs   av.it.:  12.1
      thresh= 5.527E-05 alpha_mix =  0.700 |ddv_scf|^2 =  1.036E-08

      iter #   4 total cpu time :  3989.3 secs   av.it.:  12.8
      thresh= 1.018E-05 alpha_mix =  0.700 |ddv_scf|^2 =  2.034E-09

      iter #   5 total cpu time :  4014.6 secs   av.it.:  12.5
      thresh= 4.510E-06 alpha_mix =  0.700 |ddv_scf|^2 =  2.901E-11

      iter #   6 total cpu time :  4040.1 secs   av.it.:  12.6
      thresh= 5.386E-07 alpha_mix =  0.700 |ddv_scf|^2 =  4.416E-12

      iter #   7 total cpu time :  4066.2 secs   av.it.:  12.9
      thresh= 2.101E-07 alpha_mix =  0.700 |ddv_scf|^2 =  1.917E-12

      iter #   8 total cpu time :  4091.6 secs   av.it.:  12.5
      thresh= 1.385E-07 alpha_mix =  0.700 |ddv_scf|^2 =  1.348E-14

     End of self-consistent calculation

     Convergence has been achieved 


     Representation #  19 mode #  19

     Self-consistent Calculation

      iter #   1 total cpu time :  4108.8 secs   av.it.:   6.6
      thresh= 1.000E-02 alpha_mix =  0.700 |ddv_scf|^2 =  8.055E-07

      iter #   2 total cpu time :  4134.4 secs   av.it.:  12.7
      thresh= 8.975E-05 alpha_mix =  0.700 |ddv_scf|^2 =  7.286E-08

      iter #   3 total cpu time :  4160.1 secs   av.it.:  12.8
      thresh= 2.699E-05 alpha_mix =  0.700 |ddv_scf|^2 =  9.678E-09

      iter #   4 total cpu time :  4185.9 secs   av.it.:  12.8
      thresh= 9.838E-06 alpha_mix =  0.700 |ddv_scf|^2 =  1.053E-09

      iter #   5 total cpu time :  4211.3 secs   av.it.:  12.5
      thresh= 3.246E-06 alpha_mix =  0.700 |ddv_scf|^2 =  3.624E-11

      iter #   6 total cpu time :  4236.8 secs   av.it.:  12.5
      thresh= 6.020E-07 alpha_mix =  0.700 |ddv_scf|^2 =  3.190E-12

      iter #   7 total cpu time :  4263.1 secs   av.it.:  13.1
      thresh= 1.786E-07 alpha_mix =  0.700 |ddv_scf|^2 =  1.302E-12

      iter #   8 total cpu time :  4288.7 secs   av.it.:  12.6
      thresh= 1.141E-07 alpha_mix =  0.700 |ddv_scf|^2 =  3.128E-14

     End of self-consistent calculation

     Convergence has been achieved 


     Representation #  20 mode #  20

     Self-consistent Calculation

      iter #   1 total cpu time :  4306.4 secs   av.it.:   6.9
      thresh= 1.000E-02 alpha_mix =  0.700 |ddv_scf|^2 =  1.036E-06

      iter #   2 total cpu time :  4331.8 secs   av.it.:  12.7
      thresh= 1.018E-04 alpha_mix =  0.700 |ddv_scf|^2 =  2.134E-07

      iter #   3 total cpu time :  4356.5 secs   av.it.:  11.9
      thresh= 4.620E-05 alpha_mix =  0.700 |ddv_scf|^2 =  7.130E-09

      iter #   4 total cpu time :  4381.7 secs   av.it.:  12.3
      thresh= 8.444E-06 alpha_mix =  0.700 |ddv_scf|^2 =  6.392E-10

      iter #   5 total cpu time :  4407.5 secs   av.it.:  12.8
      thresh= 2.528E-06 alpha_mix =  0.700 |ddv_scf|^2 =  5.896E-11

      iter #   6 total cpu time :  4433.1 secs   av.it.:  12.7
      thresh= 7.678E-07 alpha_mix =  0.700 |ddv_scf|^2 =  1.923E-12

      iter #   7 total cpu time :  4458.8 secs   av.it.:  12.8
      thresh= 1.387E-07 alpha_mix =  0.700 |ddv_scf|^2 =  5.196E-13

     End of self-consistent calculation

     Convergence has been achieved 


     Representation #  21 mode #  21

     Self-consistent Calculation

      iter #   1 total cpu time :  4476.2 secs   av.it.:   6.7
      thresh= 1.000E-02 alpha_mix =  0.700 |ddv_scf|^2 =  1.321E-06

      iter #   2 total cpu time :  4501.0 secs   av.it.:  12.5
      thresh= 1.149E-04 alpha_mix =  0.700 |ddv_scf|^2 =  3.055E-07

      iter #   3 total cpu time :  4525.0 secs   av.it.:  12.1
      thresh= 5.527E-05 alpha_mix =  0.700 |ddv_scf|^2 =  1.036E-08

      iter #   4 total cpu time :  4550.1 secs   av.it.:  12.8
      thresh= 1.018E-05 alpha_mix =  0.700 |ddv_scf|^2 =  2.034E-09

      iter #   5 total cpu time :  4575.3 secs   av.it.:  12.5
      thresh= 4.510E-06 alpha_mix =  0.700 |ddv_scf|^2 =  2.901E-11

      iter #   6 total cpu time :  4600.8 secs   av.it.:  12.6
      thresh= 5.386E-07 alpha_mix =  0.700 |ddv_scf|^2 =  4.416E-12

      iter #   7 total cpu time :  4627.0 secs   av.it.:  12.9
      thresh= 2.101E-07 alpha_mix =  0.700 |ddv_scf|^2 =  1.917E-12

      iter #   8 total cpu time :  4652.4 secs   av.it.:  12.5
      thresh= 1.385E-07 alpha_mix =  0.700 |ddv_scf|^2 =  1.349E-14

     End of self-consistent calculation

     Convergence has been achieved 


     Representation #  22 mode #  22

     Self-consistent Calculation

      iter #   1 total cpu time :  4669.8 secs   av.it.:   6.6
      thresh= 1.000E-02 alpha_mix =  0.700 |ddv_scf|^2 =  8.525E-07

      iter #   2 total cpu time :  4695.5 secs   av.it.:  12.7
      thresh= 9.233E-05 alpha_mix =  0.700 |ddv_scf|^2 =  1.036E-07

      iter #   3 total cpu time :  4720.7 secs   av.it.:  12.3
      thresh= 3.218E-05 alpha_mix =  0.700 |ddv_scf|^2 =  8.719E-09

      iter #   4 total cpu time :  4746.2 secs   av.it.:  12.4
      thresh= 9.337E-06 alpha_mix =  0.700 |ddv_scf|^2 =  6.579E-10

      iter #   5 total cpu time :  4771.9 secs   av.it.:  12.8
      thresh= 2.565E-06 alpha_mix =  0.700 |ddv_scf|^2 =  5.420E-11

      iter #   6 total cpu time :  4797.7 secs   av.it.:  12.7
      thresh= 7.362E-07 alpha_mix =  0.700 |ddv_scf|^2 =  3.251E-12

      iter #   7 total cpu time :  4824.1 secs   av.it.:  12.9
      thresh= 1.803E-07 alpha_mix =  0.700 |ddv_scf|^2 =  1.154E-12

      iter #   8 total cpu time :  4849.9 secs   av.it.:  12.8
      thresh= 1.074E-07 alpha_mix =  0.700 |ddv_scf|^2 =  4.061E-14

     End of self-consistent calculation

     Convergence has been achieved 


     Representation #  23 mode #  23

     Self-consistent Calculation

      iter #   1 total cpu time :  4867.5 secs   av.it.:   6.8
      thresh= 1.000E-02 alpha_mix =  0.700 |ddv_scf|^2 =  9.891E-07

      iter #   2 total cpu time :  4893.3 secs   av.it.:  12.7
      thresh= 9.945E-05 alpha_mix =  0.700 |ddv_scf|^2 =  1.826E-07

      iter #   3 total cpu time :  4918.4 secs   av.it.:  12.3
      thresh= 4.274E-05 alpha_mix =  0.700 |ddv_scf|^2 =  8.538E-09

      iter #   4 total cpu time :  4944.2 secs   av.it.:  12.8
      thresh= 9.240E-06 alpha_mix =  0.700 |ddv_scf|^2 =  1.277E-09

      iter #   5 total cpu time :  4969.8 secs   av.it.:  12.6
      thresh= 3.573E-06 alpha_mix =  0.700 |ddv_scf|^2 =  4.634E-11

      iter #   6 total cpu time :  4995.4 secs   av.it.:  12.6
      thresh= 6.807E-07 alpha_mix =  0.700 |ddv_scf|^2 =  3.156E-12

      iter #   7 total cpu time :  5021.7 secs   av.it.:  13.0
      thresh= 1.776E-07 alpha_mix =  0.700 |ddv_scf|^2 =  1.644E-12

      iter #   8 total cpu time :  5047.2 secs   av.it.:  12.5
      thresh= 1.282E-07 alpha_mix =  0.700 |ddv_scf|^2 =  2.318E-14

     End of self-consistent calculation

     Convergence has been achieved 


     Representation #  24 mode #  24

     Self-consistent Calculation

      iter #   1 total cpu time :  5064.3 secs   av.it.:   6.7
      thresh= 1.000E-02 alpha_mix =  0.700 |ddv_scf|^2 =  1.322E-06

      iter #   2 total cpu time :  5089.1 secs   av.it.:  12.5
      thresh= 1.150E-04 alpha_mix =  0.700 |ddv_scf|^2 =  3.054E-07

      iter #   3 total cpu time :  5113.5 secs   av.it.:  12.1
      thresh= 5.527E-05 alpha_mix =  0.700 |ddv_scf|^2 =  1.037E-08

      iter #   4 total cpu time :  5139.3 secs   av.it.:  12.8
      thresh= 1.019E-05 alpha_mix =  0.700 |ddv_scf|^2 =  2.033E-09

      iter #   5 total cpu time :  5164.6 secs   av.it.:  12.5
      thresh= 4.509E-06 alpha_mix =  0.700 |ddv_scf|^2 =  2.902E-11

      iter #   6 total cpu time :  5190.1 secs   av.it.:  12.6
      thresh= 5.387E-07 alpha_mix =  0.700 |ddv_scf|^2 =  4.427E-12

      iter #   7 total cpu time :  5216.4 secs   av.it.:  12.9
      thresh= 2.104E-07 alpha_mix =  0.700 |ddv_scf|^2 =  1.925E-12

      iter #   8 total cpu time :  5241.8 secs   av.it.:  12.5
      thresh= 1.387E-07 alpha_mix =  0.700 |ddv_scf|^2 =  1.353E-14

     End of self-consistent calculation

     Convergence has been achieved 


     Representation #  25 mode #  25

     Self-consistent Calculation

      iter #   1 total cpu time :  5259.8 secs   av.it.:   6.9
      thresh= 1.000E-02 alpha_mix =  0.700 |ddv_scf|^2 =  1.105E-06

      iter #   2 total cpu time :  5285.5 secs   av.it.:  12.7
      thresh= 1.051E-04 alpha_mix =  0.700 |ddv_scf|^2 =  2.530E-07

      iter #   3 total cpu time :  5310.3 secs   av.it.:  12.0
      thresh= 5.030E-05 alpha_mix =  0.700 |ddv_scf|^2 =  6.893E-09

      iter #   4 total cpu time :  5335.9 secs   av.it.:  12.6
      thresh= 8.303E-06 alpha_mix =  0.700 |ddv_scf|^2 =  9.351E-10

      iter #   5 total cpu time :  5361.8 secs   av.it.:  12.8
      thresh= 3.058E-06 alpha_mix =  0.700 |ddv_scf|^2 =  5.695E-11

      iter #   6 total cpu time :  5387.5 secs   av.it.:  12.7
      thresh= 7.547E-07 alpha_mix =  0.700 |ddv_scf|^2 =  2.251E-12

      iter #   7 total cpu time :  5413.6 secs   av.it.:  12.9
      thresh= 1.500E-07 alpha_mix =  0.700 |ddv_scf|^2 =  1.398E-12

      iter #   8 total cpu time :  5439.0 secs   av.it.:  12.4
      thresh= 1.182E-07 alpha_mix =  0.700 |ddv_scf|^2 =  1.409E-14

     End of self-consistent calculation

     Convergence has been achieved 


     Representation #  26 mode #  26

     Self-consistent Calculation

      iter #   1 total cpu time :  5456.1 secs   av.it.:   6.2
      thresh= 1.000E-02 alpha_mix =  0.700 |ddv_scf|^2 =  7.367E-07

      iter #   2 total cpu time :  5481.5 secs   av.it.:  12.6
      thresh= 8.583E-05 alpha_mix =  0.700 |ddv_scf|^2 =  3.351E-08

      iter #   3 total cpu time :  5507.7 secs   av.it.:  12.9
      thresh= 1.831E-05 alpha_mix =  0.700 |ddv_scf|^2 =  7.615E-09

      iter #   4 total cpu time :  5533.4 secs   av.it.:  12.6
      thresh= 8.726E-06 alpha_mix =  0.700 |ddv_scf|^2 =  3.732E-10

      iter #   5 total cpu time :  5558.9 secs   av.it.:  12.6
      thresh= 1.932E-06 alpha_mix =  0.700 |ddv_scf|^2 =  2.500E-11

      iter #   6 total cpu time :  5585.0 secs   av.it.:  12.9
      thresh= 5.000E-07 alpha_mix =  0.700 |ddv_scf|^2 =  3.424E-12

      iter #   7 total cpu time :  5611.2 secs   av.it.:  12.9
      thresh= 1.850E-07 alpha_mix =  0.700 |ddv_scf|^2 =  7.525E-13

     End of self-consistent calculation

     Convergence has been achieved 


     Representation #  27 mode #  27

     Self-consistent Calculation

      iter #   1 total cpu time :  5628.7 secs   av.it.:   6.7
      thresh= 1.000E-02 alpha_mix =  0.700 |ddv_scf|^2 =  1.321E-06

      iter #   2 total cpu time :  5654.2 secs   av.it.:  12.5
      thresh= 1.150E-04 alpha_mix =  0.700 |ddv_scf|^2 =  3.055E-07

      iter #   3 total cpu time :  5678.9 secs   av.it.:  12.1
      thresh= 5.527E-05 alpha_mix =  0.700 |ddv_scf|^2 =  1.037E-08

      iter #   4 total cpu time :  5704.1 secs   av.it.:  12.8
      thresh= 1.018E-05 alpha_mix =  0.700 |ddv_scf|^2 =  2.035E-09

      iter #   5 total cpu time :  5729.2 secs   av.it.:  12.5
      thresh= 4.511E-06 alpha_mix =  0.700 |ddv_scf|^2 =  2.901E-11

      iter #   6 total cpu time :  5754.2 secs   av.it.:  12.6
      thresh= 5.386E-07 alpha_mix =  0.700 |ddv_scf|^2 =  4.424E-12

      iter #   7 total cpu time :  5780.2 secs   av.it.:  12.9
      thresh= 2.103E-07 alpha_mix =  0.700 |ddv_scf|^2 =  1.922E-12

      iter #   8 total cpu time :  5805.7 secs   av.it.:  12.5
      thresh= 1.386E-07 alpha_mix =  0.700 |ddv_scf|^2 =  1.355E-14

     End of self-consistent calculation

     Convergence has been achieved 

     Number of q in the star =    1
     List of q in the star:
          1   0.000000000   0.000000000   0.000000000

          Dielectric constant in cartesian axis 

          (       2.457986866       0.000006391      -0.000000083 )
          (       0.000006398       2.458017277      -0.000000195 )
          (      -0.000000072      -0.000000193       2.493685387 )

          Effective charges (d Force / dE) in cartesian axis

           atom      1   Si 
      Ex  (        3.50612       -0.28802        0.26755 )
      Ey  (       -0.28802        3.17354       -0.15447 )
      Ez  (       -0.23502        0.13569        3.47061 )
           atom      2   Si 
      Ex  (        3.50613        0.28802       -0.26755 )
      Ey  (        0.28802        3.17354       -0.15447 )
      Ez  (        0.23501        0.13569        3.47061 )
           atom      3   Si 
      Ex  (        3.00725       -0.00000       -0.00000 )
      Ey  (       -0.00000        3.67241        0.30894 )
      Ez  (       -0.00000       -0.27137        3.47061 )
           atom      4   O  
      Ex  (       -2.27874       -0.08544       -0.80715 )
      Ey  (       -0.02669       -1.05628       -0.06532 )
      Ez  (       -0.80776       -0.14101       -1.73423 )
           atom      5   O  
      Ex  (       -1.41047        0.52802        0.46014 )
      Ey  (        0.58680       -1.92466       -0.66635 )
      Ez  (        0.52600       -0.62904       -1.73422 )
           atom      6   O  
      Ex  (       -1.31338       -0.53076        0.34701 )
      Ey  (       -0.47198       -2.02181        0.73168 )
      Ez  (        0.28176        0.77004       -1.73423 )
           atom      7   O  
      Ex  (       -1.31337        0.53073       -0.34700 )
      Ey  (        0.47197       -2.02177        0.73167 )
      Ez  (       -0.28176        0.77004       -1.73423 )
           atom      8   O  
      Ex  (       -1.41049       -0.52806       -0.46015 )
      Ey  (       -0.58684       -1.92469       -0.66636 )
      Ez  (       -0.52600       -0.62904       -1.73422 )
           atom      9   O  
      Ex  (       -2.27873        0.08543        0.80715 )
      Ey  (        0.02667       -1.05628       -0.06532 )
      Ez  (        0.80776       -0.14101       -1.73422 )

     Diagonalizing the dynamical matrix

     q = (    0.000000000   0.000000000   0.000000000 ) 

 **************************************************************************
     freq (    1) =      -0.583245 [THz] =     -19.454968 [cm-1]
     freq (    2) =      -0.461823 [THz] =     -15.404767 [cm-1]
     freq (    3) =       0.393040 [THz] =      13.110390 [cm-1]
     freq (    4) =       2.793261 [THz] =      93.173159 [cm-1]
     freq (    5) =       2.793360 [THz] =      93.176476 [cm-1]
     freq (    6) =       5.823405 [THz] =     194.247872 [cm-1]
     freq (    7) =       7.251187 [THz] =     241.873561 [cm-1]
     freq (    8) =       7.323577 [THz] =     244.288245 [cm-1]
     freq (    9) =       9.988093 [THz] =     333.166906 [cm-1]
     freq (   10) =      10.138177 [THz] =     338.173180 [cm-1]
     freq (   11) =      11.162957 [THz] =     372.356170 [cm-1]
     freq (   12) =      11.174183 [THz] =     372.730617 [cm-1]
     freq (   13) =      12.702018 [THz] =     423.693719 [cm-1]
     freq (   14) =      12.708829 [THz] =     423.920909 [cm-1]
     freq (   15) =      13.443192 [THz] =     448.416625 [cm-1]
     freq (   16) =      14.058112 [THz] =     468.928154 [cm-1]
     freq (   17) =      20.735707 [THz] =     691.668730 [cm-1]
     freq (   18) =      20.748413 [THz] =     692.092567 [cm-1]
     freq (   19) =      23.210707 [THz] =     774.225840 [cm-1]
     freq (   20) =      23.688625 [THz] =     790.167477 [cm-1]
     freq (   21) =      23.691104 [THz] =     790.250183 [cm-1]
     freq (   22) =      32.418802 [THz] =    1081.374829 [cm-1]
     freq (   23) =      32.420801 [THz] =    1081.441528 [cm-1]
     freq (   24) =      32.723141 [THz] =    1091.526507 [cm-1]
     freq (   25) =      32.902284 [THz] =    1097.502061 [cm-1]
     freq (   26) =      35.036525 [THz] =    1168.692660 [cm-1]
     freq (   27) =      35.038087 [THz] =    1168.744789 [cm-1]
 **************************************************************************

     Mode symmetry, C_1 (1)     point group:

     freq (   1-   1) =        -19.5  [cm-1]   --> A               I+R
     freq (   2-   2) =        -15.4  [cm-1]   --> A               I+R
     freq (   3-   3) =         13.1  [cm-1]   --> A               I+R
     freq (   4-   4) =         93.2  [cm-1]   --> A               I+R
     freq (   5-   5) =         93.2  [cm-1]   --> A               I+R
     freq (   6-   6) =        194.2  [cm-1]   --> A               I+R
     freq (   7-   7) =        241.9  [cm-1]   --> A               I+R
     freq (   8-   8) =        244.3  [cm-1]   --> A               I+R
     freq (   9-   9) =        333.2  [cm-1]   --> A               I+R
     freq (  10-  10) =        338.2  [cm-1]   --> A               I+R
     freq (  11-  11) =        372.4  [cm-1]   --> A               I+R
     freq (  12-  12) =        372.7  [cm-1]   --> A               I+R
     freq (  13-  13) =        423.7  [cm-1]   --> A               I+R
     freq (  14-  14) =        423.9  [cm-1]   --> A               I+R
     freq (  15-  15) =        448.4  [cm-1]   --> A               I+R
     freq (  16-  16) =        468.9  [cm-1]   --> A               I+R
     freq (  17-  17) =        691.7  [cm-1]   --> A               I+R
     freq (  18-  18) =        692.1  [cm-1]   --> A               I+R
     freq (  19-  19) =        774.2  [cm-1]   --> A               I+R
     freq (  20-  20) =        790.2  [cm-1]   --> A               I+R
     freq (  21-  21) =        790.3  [cm-1]   --> A               I+R
     freq (  22-  22) =       1081.4  [cm-1]   --> A               I+R
     freq (  23-  23) =       1081.4  [cm-1]   --> A               I+R
     freq (  24-  24) =       1091.5  [cm-1]   --> A               I+R
     freq (  25-  25) =       1097.5  [cm-1]   --> A               I+R
     freq (  26-  26) =       1168.7  [cm-1]   --> A               I+R
     freq (  27-  27) =       1168.7  [cm-1]   --> A               I+R

     PHONON       :      1h34m CPU      1h36m WALL

     INITIALIZATION: 
     phq_setup    :      0.07s CPU      0.07s WALL (       1 calls)
     phq_init     :     32.06s CPU     32.84s WALL (       1 calls)

     phq_init     :     32.06s CPU     32.84s WALL (       1 calls)
     set_drhoc    :      1.55s CPU      1.55s WALL (       3 calls)
     init_vloc    :      0.23s CPU      0.23s WALL (       1 calls)
     init_us_1    :      0.10s CPU      0.11s WALL (       1 calls)
     newd         :      0.10s CPU      0.11s WALL (       1 calls)
     dvanqq       :      6.65s CPU      6.65s WALL (       1 calls)
     drho         :     20.71s CPU     21.45s WALL (       1 calls)
     cmpt_qdipol  :      0.00s CPU      0.00s WALL (       1 calls)

     DIELECTRIC CONSTANT AND EFFECTIVE CHARGES:
     solve_e      :    572.10s CPU    589.76s WALL (       1 calls)
     dielec       :      0.01s CPU      0.03s WALL (       1 calls)
     zstar_eu     :    230.76s CPU    233.94s WALL (       1 calls)

     DYNAMICAL MATRIX:
     dynmat0      :      2.89s CPU      2.90s WALL (       1 calls)
     phqscf       :   4806.50s CPU   4948.02s WALL (       1 calls)
     dynmatrix    :      0.01s CPU      0.01s WALL (       1 calls)

     phqscf       :   4806.50s CPU   4948.02s WALL (       1 calls)
     solve_linter :   4782.74s CPU   4923.90s WALL (      27 calls)
     drhodv       :     23.68s CPU     23.96s WALL (      27 calls)

     dynmat0      :      2.89s CPU      2.90s WALL (       1 calls)
     dynmat_us    :      1.62s CPU      1.64s WALL (       1 calls)
     d2ionq       :      0.14s CPU      0.14s WALL (       1 calls)
     dynmatcc     :      1.09s CPU      1.10s WALL (       1 calls)

     dynmat_us    :      1.62s CPU      1.64s WALL (       1 calls)
     addusdynmat  :      0.00s CPU      0.00s WALL (       1 calls)

     phqscf       :   4806.50s CPU   4948.02s WALL (       1 calls)
     solve_linter :   4782.74s CPU   4923.90s WALL (      27 calls)

     solve_linter :   4782.74s CPU   4923.90s WALL (      27 calls)
     dvqpsi_us    :     64.32s CPU     66.84s WALL (    1944 calls)
     ortho        :    113.15s CPU    113.89s WALL (    8064 calls)
     cgsolve      :   4369.55s CPU   4503.84s WALL (    8064 calls)
     incdrhoscf   :    138.43s CPU    149.32s WALL (    8064 calls)
     addusddens   :     45.01s CPU     45.07s WALL (     230 calls)
     vpsifft      :     72.73s CPU     80.66s WALL (    6336 calls)
     dv_of_drho   :      3.95s CPU      4.11s WALL (     224 calls)
     mix_pot      :      0.54s CPU      1.02s WALL (     209 calls)
     psymdvscf    :      6.19s CPU      6.40s WALL (     203 calls)
     newdq        :     39.07s CPU     39.10s WALL (     209 calls)
     adddvscf     :     49.38s CPU     49.68s WALL (    6876 calls)
     drhodvus     :      0.13s CPU      0.20s WALL (      27 calls)

     dvqpsi_us    :     64.32s CPU     66.84s WALL (    1944 calls)
     dvqpsi_us_on :     40.05s CPU     40.16s WALL (    1944 calls)

     cgsolve      :   4369.55s CPU   4503.84s WALL (    8064 calls)
     ch_psi       :   4293.10s CPU   4426.59s WALL (  131317 calls)

     ch_psi       :   4293.10s CPU   4426.59s WALL (  131317 calls)
     h_psi        :   2279.20s CPU   2403.87s WALL (  131317 calls)
     last         :   1438.51s CPU   1446.31s WALL (  131317 calls)

     h_psi        :   2279.20s CPU   2403.87s WALL (  131317 calls)
     add_vuspsi   :    558.84s CPU    559.90s WALL (  131317 calls)

     incdrhoscf   :    138.43s CPU    149.32s WALL (    8064 calls)
     addusdbec    :     49.18s CPU     49.89s WALL (    9036 calls)

     drhodvus     :      0.13s CPU      0.20s WALL (      27 calls)

      General routines
     calbec       :   1339.26s CPU   1356.60s WALL (  307526 calls)
     fft          :      6.10s CPU      6.46s WALL (    5338 calls)
     ffts         :      2.53s CPU      2.75s WALL (    3173 calls)
     fftw         :   1207.83s CPU   1327.94s WALL ( 5679568 calls)
     davcio       :      3.39s CPU      4.60s WALL (   43510 calls)
     write_rec    :      0.20s CPU      0.96s WALL (     236 calls)


     PHONON       :      1h34m CPU      1h36m WALL


   This run was terminated on:   6: 5:11   1Jul2026            

=------------------------------------------------------------------------------=
   JOB DONE.
=------------------------------------------------------------------------------=
