
     Program PWSCF v.6.7MaX starts on  1Jul2026 at  3:35:42 

     This program is part of the open-source Quantum ESPRESSO suite
     for quantum simulation of materials; please cite
         "P. Giannozzi et al., J. Phys.:Condens. Matter 21 395502 (2009);
         "P. Giannozzi et al., J. Phys.:Condens. Matter 29 465901 (2017);
          URL http://www.quantum-espresso.org", 
     in publications or presentations arising from this work. More details at
     http://www.quantum-espresso.org/quote

     Parallel version (MPI), running on     8 processors

     MPI processes distributed on     1 nodes
     K-points division:     npool     =       2
     R & G space division:  proc/nbgrp/npool/nimage =       4
     Waiting for input...
     Reading input from standard input

     Current dimensions of program PWSCF are:
     Max number of different atomic species (ntypx) = 10
     Max number of k-points (npk) =  40000
     Max angular momentum in pseudopotentials (lmaxx) =  3
     file Si.pbe-n-kjpaw_psl.1.0.0.UPF: wavefunction(s)  3S 3P renormalized
     file O.pbe-n-kjpaw_psl.0.1.UPF: wavefunction(s)  2P renormalized

     Subspace diagonalization in iterative solution of the eigenvalue problem:
     one sub-group per band group will be used
     scalapack distributed-memory algorithm (size of sub-group:  2*  2 procs)

     Message from routine setup:
     using ibrav=0 with symmetry is DISCOURAGED, use correct ibrav instead

     Parallelization info
     --------------------
     sticks:   dense  smooth     PW     G-vecs:    dense   smooth      PW
     Min         595     297     87                25899     9125    1415
     Max         596     298     88                25904     9128    1418
     Sum        2383    1189    349               103607    36503    5665



     bravais-lattice index     =            0
     lattice parameter (alat)  =       9.2879  a.u.
     unit-cell volume          =     766.7826 (a.u.)^3
     number of atoms/cell      =            9
     number of atomic types    =            2
     number of electrons       =        48.00
     number of Kohn-Sham states=           29
     kinetic-energy cutoff     =      50.0000  Ry
     charge density cutoff     =     400.0000  Ry
     scf convergence threshold =      1.0E-08
     mixing beta               =       0.3000
     number of iterations used =            8  plain     mixing
     energy convergence thresh.=      1.0E-05
     force convergence thresh. =      1.0E-04
     press convergence thresh. =      5.0E-01
     Exchange-correlation= SLA  PW   PBX  PBC
                           (   1   4   3   4   0   0   0)
     nstep                     =           50


     celldm(1)=   9.287940  celldm(2)=   0.000000  celldm(3)=   0.000000
     celldm(4)=   0.000000  celldm(5)=   0.000000  celldm(6)=   0.000000

     crystal axes: (cart. coord. in units of alat)
               a(1) = (   1.000000  -0.000000   0.000000 )  
               a(2) = (  -0.500000   0.866026  -0.000000 )  
               a(3) = (   0.000000   0.000000   1.105054 )  

     reciprocal axes: (cart. coord. in units 2 pi/alat)
               b(1) = (  1.000000  0.577350 -0.000000 )  
               b(2) = (  0.000000  1.154700 -0.000000 )  
               b(3) = (  0.000000  0.000000  0.904933 )  


     PseudoPot. # 1 for Si read from file:
     /data/pseudopotentials/Si.pbe-n-kjpaw_psl.1.0.0.UPF
     MD5 check sum: c39c59da582df4a0d9f10159256ea34e
     Pseudo is Projector augmented-wave + core cor, Zval =  4.0
     Generated using &quot;atomic&quot; code by A. Dal Corso  v.6.3
     Shape of augmentation charge: PSQ
     Using radial grid of 1141 points,  6 beta functions with: 
                l(1) =   0
                l(2) =   0
                l(3) =   1
                l(4) =   1
                l(5) =   2
                l(6) =   2
     Q(r) pseudized with 0 coefficients 


     PseudoPot. # 2 for O  read from file:
     /data/pseudopotentials/O.pbe-n-kjpaw_psl.0.1.UPF
     MD5 check sum: 833c495a5d0f9b75bf046115549bffff
     Pseudo is Projector augmented-wave + core cor, Zval =  6.0
     Generated using &quot;atomic&quot; code by A. Dal Corso  v.6.3
     Shape of augmentation charge: BESSEL
     Using radial grid of 1095 points,  4 beta functions with: 
                l(1) =   0
                l(2) =   0
                l(3) =   1
                l(4) =   1
     Q(r) pseudized with 0 coefficients 


     atomic species   valence    mass     pseudopotential
        Si             4.00    28.08500     Si( 1.00)
        O              6.00    15.99900     O ( 1.00)

      6 Sym. Ops. (no inversion) found ( 4 have fractional translation)



   Cartesian axes

     site n.     atom                  positions (alat units)
         1           Si  tau(   1) = (   0.2655443   0.4599363   0.0000000  )
         2           Si  tau(   2) = (  -0.2344557   0.4060893   0.7367028  )
         3           Si  tau(   3) = (   0.4689114  -0.0000000   0.3683508  )
         4           O   tau(   4) = (   0.0625260   0.3580100   0.8673466  )
         5           O   tau(   5) = (   0.1586919   0.7411688   0.1306449  )
         6           O   tau(   6) = (  -0.2212162   0.6328715   0.4989958  )
         7           O   tau(   7) = (   0.2787828   0.2331541   0.2377070  )
         8           O   tau(   8) = (   0.6586908   0.1248568   0.6060579  )
         9           O   tau(   9) = (   0.5625250   0.5080155   0.9744087  )

     number of k points=    13  Gaussian smearing, width (Ry)=  0.0050
                       cart. coord. in units 2pi/alat
        k(    1) = (   0.0000000   0.0000000   0.0000000), wk =   0.0312500
        k(    2) = (   0.0000000   0.0000000   0.2262334), wk =   0.0625000
        k(    3) = (   0.0000000   0.0000000  -0.4524667), wk =   0.0312500
        k(    4) = (   0.0000000   0.2886751   0.0000000), wk =   0.1875000
        k(    5) = (   0.0000000   0.2886751   0.2262334), wk =   0.1875000
        k(    6) = (   0.0000000   0.2886751  -0.4524667), wk =   0.1875000
        k(    7) = (  -0.0000000  -0.5773502   0.0000000), wk =   0.0937500
        k(    8) = (  -0.0000000  -0.5773502   0.2262334), wk =   0.1875000
        k(    9) = (  -0.0000000  -0.5773502  -0.4524667), wk =   0.0937500
        k(   10) = (   0.2500000   0.4330126   0.0000000), wk =   0.1875000
        k(   11) = (   0.2500000   0.4330126   0.2262334), wk =   0.3750000
        k(   12) = (   0.2500000   0.4330126  -0.4524667), wk =   0.1875000
        k(   13) = (   0.0000000   0.2886751  -0.2262334), wk =   0.1875000

     Dense  grid:   103607 G-vectors     FFT dimensions: (  60,  60,  72)

     Smooth grid:    36503 G-vectors     FFT dimensions: (  45,  45,  48)

     Estimated max dynamical RAM per process >      68.28 MB

     Estimated total dynamical RAM >     546.22 MB

     Check: negative core charge=   -0.000002

     Initial potential from superposition of free atoms

     starting charge   47.99831, renormalised to   48.00000
     Starting wfcs are   36 randomized atomic wfcs
     Checking if some PAW data can be deallocated... 

     total cpu time spent up to now is        5.2 secs

     Self-consistent Calculation

     iteration #  1     ecut=    50.00 Ry     beta= 0.30
     Davidson diagonalization with overlap
     ethr =  1.00E-02,  avg # of iterations =  3.6

     total cpu time spent up to now is        8.5 secs

     total energy              =    -390.85777787 Ry
     estimated scf accuracy    <       2.29738159 Ry

     iteration #  2     ecut=    50.00 Ry     beta= 0.30
     Davidson diagonalization with overlap
     ethr =  4.79E-03,  avg # of iterations =  2.0

     total cpu time spent up to now is       11.3 secs

     total energy              =    -391.08906539 Ry
     estimated scf accuracy    <       0.21466186 Ry

     iteration #  3     ecut=    50.00 Ry     beta= 0.30
     Davidson diagonalization with overlap
     ethr =  4.47E-04,  avg # of iterations =  6.1

     total cpu time spent up to now is       14.7 secs

     total energy              =    -391.14183991 Ry
     estimated scf accuracy    <       0.03970183 Ry

     iteration #  4     ecut=    50.00 Ry     beta= 0.30
     Davidson diagonalization with overlap
     ethr =  8.27E-05,  avg # of iterations =  5.8

     total cpu time spent up to now is       18.2 secs

     total energy              =    -391.14371313 Ry
     estimated scf accuracy    <       0.01144565 Ry

     iteration #  5     ecut=    50.00 Ry     beta= 0.30
     Davidson diagonalization with overlap
     ethr =  2.38E-05,  avg # of iterations =  4.9

     total cpu time spent up to now is       21.4 secs

     total energy              =    -391.14495139 Ry
     estimated scf accuracy    <       0.00040277 Ry

     iteration #  6     ecut=    50.00 Ry     beta= 0.30
     Davidson diagonalization with overlap
     ethr =  8.39E-07,  avg # of iterations =  7.3

     total cpu time spent up to now is       25.6 secs

     total energy              =    -391.14519206 Ry
     estimated scf accuracy    <       0.00018689 Ry

     iteration #  7     ecut=    50.00 Ry     beta= 0.30
     Davidson diagonalization with overlap
     ethr =  3.89E-07,  avg # of iterations =  1.1

     total cpu time spent up to now is       28.0 secs

     total energy              =    -391.14518771 Ry
     estimated scf accuracy    <       0.00002556 Ry

     iteration #  8     ecut=    50.00 Ry     beta= 0.30
     Davidson diagonalization with overlap
     ethr =  5.33E-08,  avg # of iterations =  2.1

     total cpu time spent up to now is       31.0 secs

     total energy              =    -391.14520011 Ry
     estimated scf accuracy    <       0.00001004 Ry

     iteration #  9     ecut=    50.00 Ry     beta= 0.30
     Davidson diagonalization with overlap
     ethr =  2.09E-08,  avg # of iterations =  1.0

     total cpu time spent up to now is       33.4 secs

     total energy              =    -391.14519981 Ry
     estimated scf accuracy    <       0.00000230 Ry

     iteration # 10     ecut=    50.00 Ry     beta= 0.30
     Davidson diagonalization with overlap
     ethr =  4.78E-09,  avg # of iterations =  2.0

     total cpu time spent up to now is       36.2 secs

     total energy              =    -391.14520011 Ry
     estimated scf accuracy    <       0.00000016 Ry

     iteration # 11     ecut=    50.00 Ry     beta= 0.30
     Davidson diagonalization with overlap
     ethr =  3.24E-10,  avg # of iterations =  3.0

     total cpu time spent up to now is       39.4 secs

     End of self-consistent calculation

          k = 0.0000 0.0000 0.0000 (  4595 PWs)   bands (ev):

   -16.9032 -15.3938 -15.3938 -14.7435 -14.7150 -14.7150  -5.7244  -5.7243
    -2.9166  -2.8733  -2.7049  -2.7049  -0.4291  -0.4291  -0.1757   0.0563
     1.0246   1.0246   1.0507   1.4953   1.4954   1.8045   2.1928   2.1928
     8.4492  11.7593  11.7593  12.2302  12.2302

          k = 0.0000 0.0000 0.2262 (  4607 PWs)   bands (ev):

   -16.7829 -15.9435 -14.9461 -14.7423 -14.7295 -14.6993  -6.5100  -4.6982
    -3.1439  -2.9863  -2.9429  -2.3326  -0.4992  -0.2031  -0.1004   0.2493
     0.7474   0.9104   1.0033   1.0252   1.4316   1.9565   2.2785   2.4012
     9.0473  11.5760  11.7017  11.7355  12.6837

          k = 0.0000 0.0000-0.4525 (  4560 PWs)   bands (ev):

   -16.4423 -16.4423 -14.7693 -14.7382 -14.7382 -14.6921  -6.8065  -3.7467
    -3.7467  -3.0659  -3.0659  -2.1318  -0.2096  -0.2095  -0.1371   0.5084
     0.5084   0.6898   0.6898   0.9810   1.3053   2.2765   2.2766   2.4085
    10.3990  10.3991  11.5231  12.1590  12.1590

          k = 0.0000 0.2887 0.0000 (  4602 PWs)   bands (ev):

   -16.7261 -15.5919 -15.3673 -14.7932 -14.7483 -14.7252  -5.7975  -5.3450
    -3.0117  -2.9444  -2.8422  -2.4095  -0.6202  -0.3056  -0.1348   0.3234
     0.4944   0.9365   1.0047   1.4098   1.5030   1.6663   2.2597   2.3480
     9.3372  11.7606  11.8269  12.3219  12.5374

          k = 0.0000 0.2887 0.2262 (  4590 PWs)   bands (ev):

   -16.6226 -15.9213 -15.1316 -14.7829 -14.7714 -14.7192  -6.1775  -4.7546
    -3.4329  -2.9022  -2.6320  -2.4386  -0.6771  -0.2098  -0.0747   0.2487
     0.5393   0.8904   1.0043   1.2370   1.5705   1.7616   2.1991   2.3795
     9.8012  11.5807  11.8456  12.0685  12.7769

          k = 0.0000 0.2887-0.4525 (  4578 PWs)   bands (ev):

   -16.3969 -16.2558 -15.0243 -14.7982 -14.7500 -14.7202  -6.3726  -4.1661
    -3.8301  -2.8963  -2.7828  -2.2513  -0.5044  -0.4861   0.0268   0.2783
     0.4385   0.9273   1.0365   1.2066   1.4281   2.0477   2.0771   2.3502
    10.7763  10.9299  11.8294  12.1636  12.4798

          k =-0.0000-0.5774 0.0000 (  4552 PWs)   bands (ev):

   -16.4160 -15.9423 -15.3380 -14.8169 -14.7777 -14.7453  -5.8665  -4.8583
    -3.3669  -2.9036  -2.8917  -2.0889  -0.5731  -0.4023  -0.1694   0.2301
     0.4199   0.7555   0.8533   1.4007   1.4797   1.7280   2.2267   2.4598
    10.7124  11.4523  12.1315  12.1717  13.0195

          k =-0.0000-0.5774 0.2262 (  4576 PWs)   bands (ev):

   -16.3840 -15.9262 -15.4014 -14.8184 -14.7819 -14.7379  -5.7944  -4.8022
    -3.6708  -2.8852  -2.5941  -2.2718  -0.6382  -0.5585  -0.0037   0.1927
     0.5899   0.7471   1.0593   1.3410   1.5461   1.7860   2.0506   2.3826
    10.9854  11.5321  12.0153  12.4898  12.9299

          k =-0.0000-0.5774-0.4525 (  4564 PWs)   bands (ev):

   -16.3485 -15.9092 -15.4653 -14.8373 -14.7665 -14.7366  -5.7155  -4.7440
    -3.8736  -2.7872  -2.5231  -2.4167  -0.6900  -0.6750   0.0844   0.3910
     0.4352   0.9496   1.2336   1.3592   1.6208   1.6545   1.9018   2.3148
    11.3223  11.8049  12.1408  12.3100  12.6683

          k = 0.2500 0.4330 0.0000 (  4578 PWs)   bands (ev):

   -16.4249 -15.9166 -15.3640 -14.8135 -14.7727 -14.7446  -5.8957  -4.7236
    -3.6466  -2.8756  -2.7532  -2.0934  -0.5447  -0.3713  -0.2212   0.3223
     0.3840   0.7217   0.9963   1.1607   1.4469   1.8615   2.1909   2.4722
    10.5706  11.8529  11.8755  12.6050  12.6587

          k = 0.2500 0.4330 0.2262 (  4568 PWs)   bands (ev):

   -16.3852 -15.9275 -15.3933 -14.8104 -14.7920 -14.7420  -5.8051  -4.7028
    -3.8316  -2.8505  -2.5700  -2.2809  -0.6742  -0.3899  -0.1651   0.2956
     0.5450   0.7476   1.1138   1.2906   1.5287   1.8121   2.0675   2.3429
    10.8312  11.7736  12.1111  12.5225  12.6659

          k = 0.2500 0.4330-0.4525 (  4560 PWs)   bands (ev):

   -16.3383 -15.9474 -15.4200 -14.8278 -14.7663 -14.7646  -5.7009  -4.6977
    -3.9776  -2.6931  -2.6063  -2.4146  -0.7287  -0.5044  -0.0464   0.3209
     0.5717   0.7838   1.3465   1.4500   1.5586   1.7816   1.9533   2.1184
    11.2537  11.7768  12.1137  12.4242  12.8647

          k = 0.0000 0.2887-0.2262 (  4590 PWs)   bands (ev):

   -16.6249 -15.9107 -15.1561 -14.7875 -14.7387 -14.7308  -6.1798  -4.7558
    -3.4345  -2.9215  -2.6556  -2.3701  -0.6354  -0.1551  -0.1353   0.1147
     0.4862   1.0021   1.0685   1.2175   1.6339   1.6778   2.1082   2.4662
     9.7678  11.6969  11.9655  12.1210  12.6906

     the Fermi energy is     5.6069 ev

!    total energy              =    -391.14520019 Ry

     total all-electron energy =     -2644.264146 Ry
     estimated scf accuracy    <          4.8E-09 Ry
     smearing contrib. (-TS)   =      -0.00000000 Ry
     internal energy E=F+TS    =    -391.14520019 Ry

     The total energy is F=E-TS. E is the sum of the following terms:
     one-electron contribution =    -101.56532830 Ry
     hartree contribution      =      77.51682125 Ry
     xc contribution           =     -64.45682536 Ry
     ewald contribution        =    -139.01384833 Ry
     one-center paw contrib.   =    -163.62601943 Ry

     convergence has been achieved in  11 iterations

     Forces acting on atoms (cartesian axes, Ry/au):

     atom    1 type  1   force =    -0.00034461   -0.00059688    0.00000000
     atom    2 type  1   force =    -0.00034461    0.00059688    0.00000000
     atom    3 type  1   force =     0.00068921   -0.00000000    0.00000000
     atom    4 type  2   force =     0.00420444   -0.00906936   -0.00555566
     atom    5 type  2   force =     0.00575207    0.00817583   -0.00555566
     atom    6 type  2   force =    -0.00995651    0.00089353   -0.00555566
     atom    7 type  2   force =    -0.00995651   -0.00089353    0.00555566
     atom    8 type  2   force =     0.00575207   -0.00817583    0.00555566
     atom    9 type  2   force =     0.00420444    0.00906936    0.00555566

     Total force =     0.028039     Total SCF correction =     0.000069


     Computing stress (Cartesian axis) and pressure

          total   stress  (Ry/bohr**3)                   (kbar)     P=       57.45
   0.00039477  -0.00000000   0.00000000           58.07       -0.00        0.00
  -0.00000000   0.00039477   0.00000000           -0.00       58.07        0.00
   0.00000000   0.00000000   0.00038212            0.00        0.00       56.21


     BFGS Geometry Optimization
     Energy error            =      0.0E+00
     Gradient error          =      1.0E-02
     Cell gradient error     =      3.9E-04


     number of scf cycles    =   1
     number of bfgs steps    =   0

     enthalpy new            =    -391.1452001854 Ry

     new trust radius        =       0.0546571760 bohr
     new conv_thr            =       0.0000000100 Ry

     new unit-cell volume =    789.46266 a.u.^3 (   116.98630 Ang^3 )
     density =      2.55851 g/cm^3

CELL_PARAMETERS (angstrom)
   4.963472686  -0.000000015   0.000000000
  -2.481735863   4.298494118  -0.000000000
   0.000000000   0.000000000   5.483186535

ATOMIC_POSITIONS (angstrom)
Si            1.3178379525        2.2825622021        0.0000000000
Si           -1.1638984204        2.0159319083        3.6554595176
Si            2.3277972910       -0.0000000073        1.8277270172
O             0.3125929697        1.7721262583        4.3007356396
O             0.7907367324        3.6831400025        0.6452816053
O            -1.1033212967        3.1417176622        2.4730086225
O             1.3784098612        1.1567764489        1.1824508952
O             3.2724677703        0.6153540950        3.0101779123
O             2.7943244325        2.5263678422        4.8379049295



     Writing output data file ./out/O2Si.save/
     NEW-OLD atomic charge density approx. for the potential

     Check: negative core charge=   -0.000002
     extrapolated charge   49.37892, renormalised to   48.00000

     total cpu time spent up to now is       53.5 secs

     Self-consistent Calculation

     iteration #  1     ecut=    50.00 Ry     beta= 0.30
     Davidson diagonalization with overlap
     ethr =  1.00E-06,  avg # of iterations = 10.5

     total cpu time spent up to now is       60.4 secs

     total energy              =    -391.00759232 Ry
     estimated scf accuracy    <       0.13420811 Ry

     iteration #  2     ecut=    50.00 Ry     beta= 0.30
     Davidson diagonalization with overlap
     ethr =  2.80E-04,  avg # of iterations =  3.0

     total cpu time spent up to now is       64.0 secs

     total energy              =    -391.15971606 Ry
     estimated scf accuracy    <       0.09482473 Ry

     iteration #  3     ecut=    50.00 Ry     beta= 0.30
     Davidson diagonalization with overlap
     ethr =  1.98E-04,  avg # of iterations =  1.0

     total cpu time spent up to now is       66.4 secs

     total energy              =    -391.13808297 Ry
     estimated scf accuracy    <       0.04387317 Ry

     iteration #  4     ecut=    50.00 Ry     beta= 0.30
     Davidson diagonalization with overlap
     ethr =  9.14E-05,  avg # of iterations =  2.0

     total cpu time spent up to now is       69.3 secs

     total energy              =    -391.14946986 Ry
     estimated scf accuracy    <       0.00008983 Ry

     iteration #  5     ecut=    50.00 Ry     beta= 0.30
     Davidson diagonalization with overlap
     ethr =  1.87E-07,  avg # of iterations =  7.1

     total cpu time spent up to now is       73.7 secs

     total energy              =    -391.15012038 Ry
     estimated scf accuracy    <       0.00021130 Ry

     iteration #  6     ecut=    50.00 Ry     beta= 0.30
     Davidson diagonalization with overlap
     ethr =  1.87E-07,  avg # of iterations =  4.1

     total cpu time spent up to now is       77.5 secs

     total energy              =    -391.14875039 Ry
     estimated scf accuracy    <       0.00262039 Ry

     iteration #  7     ecut=    50.00 Ry     beta= 0.30
     Davidson diagonalization with overlap
     ethr =  1.87E-07,  avg # of iterations =  4.8

     total cpu time spent up to now is       81.8 secs

     total energy              =    -391.14946633 Ry
     estimated scf accuracy    <       0.00003509 Ry

     iteration #  8     ecut=    50.00 Ry     beta= 0.30
     Davidson diagonalization with overlap
     ethr =  7.31E-08,  avg # of iterations =  1.2

     total cpu time spent up to now is       84.2 secs

     total energy              =    -391.14945062 Ry
     estimated scf accuracy    <       0.00002890 Ry

     iteration #  9     ecut=    50.00 Ry     beta= 0.30
     Davidson diagonalization with overlap
     ethr =  6.02E-08,  avg # of iterations =  2.0

     total cpu time spent up to now is       87.2 secs

     total energy              =    -391.14945839 Ry
     estimated scf accuracy    <       0.00000053 Ry

     iteration # 10     ecut=    50.00 Ry     beta= 0.30
     Davidson diagonalization with overlap
     ethr =  1.11E-09,  avg # of iterations =  3.5

     total cpu time spent up to now is       90.3 secs

     total energy              =    -391.14945835 Ry
     estimated scf accuracy    <       0.00000046 Ry

     iteration # 11     ecut=    50.00 Ry     beta= 0.30
     Davidson diagonalization with overlap
     ethr =  9.64E-10,  avg # of iterations =  2.0

     total cpu time spent up to now is       93.2 secs

     total energy              =    -391.14945845 Ry
     estimated scf accuracy    <       0.00000001 Ry

     iteration # 12     ecut=    50.00 Ry     beta= 0.30
     Davidson diagonalization with overlap
     ethr =  2.15E-11,  avg # of iterations =  3.2

     total cpu time spent up to now is       96.8 secs

     total energy              =    -391.14945846 Ry
     estimated scf accuracy    <       0.00000001 Ry

     iteration # 13     ecut=    50.00 Ry     beta= 0.30
     Davidson diagonalization with overlap
     ethr =  2.11E-11,  avg # of iterations =  1.0

     total cpu time spent up to now is       99.1 secs

     End of self-consistent calculation

          k = 0.0000 0.0000 0.0000 (  4595 PWs)   bands (ev):

   -16.9864 -15.5374 -15.5374 -14.9096 -14.8950 -14.8950  -5.8995  -5.8995
    -3.0741  -3.0625  -2.8658  -2.8658  -0.5731  -0.5731  -0.3471  -0.1280
     0.8276   0.8276   0.8473   1.2609   1.2610   1.5447   1.9523   1.9523
     7.9458  11.3200  11.3200  11.7758  11.7758

          k =-0.0000-0.0000 0.2241 (  4607 PWs)   bands (ev):

   -16.8706 -16.0641 -15.1096 -14.9098 -14.9051 -14.8824  -6.6711  -4.8820
    -3.3064  -3.1449  -3.1238  -2.5024  -0.6524  -0.3507  -0.2808   0.0575
     0.5554   0.7166   0.8111   0.8143   1.1960   1.6955   2.0339   2.1426
     8.5394  11.1473  11.1843  11.3437  12.2473

          k = 0.0000 0.0000-0.4482 (  4560 PWs)   bands (ev):

   -16.5431 -16.5431 -14.9411 -14.9093 -14.9092 -14.8765  -6.9608  -3.9237
    -3.9236  -3.2315  -3.2315  -2.3085  -0.3917  -0.3916  -0.2853   0.3245
     0.3245   0.4934   0.4934   0.7960   1.0738   2.0120   2.0120   2.1570
     9.8814   9.8815  11.1568  11.7075  11.7075

          k = 0.0000 0.2859-0.0000 (  4602 PWs)   bands (ev):

   -16.8158 -15.7272 -15.5143 -14.9604 -14.9241 -14.9001  -5.9717  -5.5261
    -3.1858  -3.1043  -3.0232  -2.5803  -0.7697  -0.4601  -0.3079   0.1323
     0.3116   0.7323   0.8061   1.1857   1.2740   1.4341   2.0145   2.0975
     8.8237  11.2720  11.3351  11.8566  12.0801

          k = 0.0000 0.2859 0.2241 (  4590 PWs)   bands (ev):

   -16.7166 -16.0439 -15.2860 -14.9530 -14.9413 -14.8983  -6.3458  -4.9411
    -3.6042  -3.0766  -2.8000  -2.6102  -0.8287  -0.3903  -0.2360   0.0723
     0.3517   0.6940   0.7988   1.0286   1.3340   1.5230   1.9593   2.1212
     9.2784  11.0553  11.3533  11.6507  12.3158

          k = 0.0000 0.2859-0.4482 (  4578 PWs)   bands (ev):

   -16.5009 -16.3638 -15.1812 -14.9657 -14.9240 -14.9003  -6.5373  -4.3487
    -4.0148  -3.0612  -2.9524  -2.4260  -0.6754  -0.6485  -0.1335   0.0953
     0.2557   0.7247   0.8362   1.0031   1.2008   1.7980   1.8259   2.0993
    10.2022  10.4050  11.3980  11.7323  12.0271

          k =-0.0000-0.5717 0.0000 (  4552 PWs)   bands (ev):

   -16.5176 -16.0630 -15.4889 -14.9830 -14.9481 -14.9194  -6.0398  -5.0384
    -3.5639  -3.0800  -3.0523  -2.2722  -0.7361  -0.5722  -0.3254   0.0691
     0.2213   0.5559   0.6459   1.1848   1.2645   1.5106   1.9795   2.2015
    10.1589  10.9294  11.6069  11.6912  12.5886

          k =-0.0000-0.5717 0.2241 (  4576 PWs)   bands (ev):

   -16.4882 -16.0481 -15.5444 -14.9851 -14.9531 -14.9137  -5.9676  -4.9883
    -3.8618  -3.0546  -2.7640  -2.4498  -0.7976  -0.7235  -0.1714   0.0206
     0.4044   0.5511   0.8475   1.1217   1.3313   1.5597   1.8064   2.1290
    10.3843  10.9893  11.5416  11.9975  12.4407

          k =-0.0000-0.5717-0.4482 (  4564 PWs)   bands (ev):

   -16.4560 -16.0323 -15.6008 -15.0014 -14.9409 -14.9135  -5.8883  -4.9365
    -4.0658  -2.9494  -2.6972  -2.5870  -0.8512  -0.8321  -0.0985   0.2172
     0.2623   0.7486   1.0227   1.1493   1.3967   1.4083   1.6673   2.0675
    10.6334  11.1902  11.7049  11.9120  12.2199

          k = 0.2476 0.4288-0.0000 (  4578 PWs)   bands (ev):

   -16.5261 -16.0382 -15.5140 -14.9797 -14.9444 -14.9177  -6.0680  -4.9098
    -3.8309  -3.0395  -2.9333  -2.2749  -0.7075  -0.5304  -0.3810   0.1422
     0.1880   0.5153   0.7860   0.9665   1.2355   1.6296   1.9458   2.2170
    10.0352  11.3046  11.3562  12.1003  12.1989

          k = 0.2476 0.4288 0.2241 (  4568 PWs)   bands (ev):

   -16.4895 -16.0487 -15.5377 -14.9779 -14.9610 -14.9182  -5.9795  -4.8909
    -4.0179  -3.0194  -2.7413  -2.4565  -0.8329  -0.5587  -0.3261   0.1150
     0.3561   0.5510   0.9097   1.0707   1.3118   1.5788   1.8284   2.0919
    10.2542  11.2396  11.5716  12.0387  12.2054

          k = 0.2476 0.4288-0.4482 (  4560 PWs)   bands (ev):

   -16.4466 -16.0671 -15.5595 -14.9909 -14.9416 -14.9402  -5.8780  -4.8858
    -4.1688  -2.8576  -2.7767  -2.5847  -0.8898  -0.6648  -0.2250   0.1487
     0.3921   0.5923   1.1240   1.2316   1.3301   1.5469   1.7116   1.8825
    10.5686  11.2524  11.6458  11.9472  12.3520

          k = 0.0000 0.2859-0.2241 (  4590 PWs)   bands (ev):

   -16.7188 -16.0337 -15.3091 -14.9567 -14.9136 -14.9069  -6.3478  -4.9419
    -3.6067  -3.0957  -2.8217  -2.5448  -0.7873  -0.3415  -0.2911  -0.0617
     0.3006   0.7975   0.8676   1.0127   1.4003   1.4353   1.8683   2.2085
     9.2392  11.1996  11.5050  11.6356  12.2340

     the Fermi energy is     5.2629 ev

!    total energy              =    -391.14945846 Ry

     total all-electron energy =     -2644.268404 Ry
     estimated scf accuracy    <          8.0E-09 Ry
     smearing contrib. (-TS)   =      -0.00000000 Ry
     internal energy E=F+TS    =    -391.14945846 Ry

     The total energy is F=E-TS. E is the sum of the following terms:
     one-electron contribution =    -103.26455699 Ry
     hartree contribution      =      77.91895184 Ry
     xc contribution           =     -64.25288336 Ry
     ewald contribution        =    -137.93048288 Ry
     one-center paw contrib.   =    -163.62048707 Ry

     convergence has been achieved in  13 iterations

     Forces acting on atoms (cartesian axes, Ry/au):

     atom    1 type  1   force =    -0.00037326   -0.00064650   -0.00000000
     atom    2 type  1   force =    -0.00037326    0.00064650    0.00000000
     atom    3 type  1   force =     0.00074652   -0.00000000   -0.00000000
     atom    4 type  2   force =    -0.00237555    0.00205362    0.00166451
     atom    5 type  2   force =    -0.00059071   -0.00308410    0.00166451
     atom    6 type  2   force =     0.00296627    0.00103048    0.00166451
     atom    7 type  2   force =     0.00296627   -0.00103048   -0.00166451
     atom    8 type  2   force =    -0.00059071    0.00308410   -0.00166451
     atom    9 type  2   force =    -0.00237555   -0.00205362   -0.00166451

     Total force =     0.008801     Total SCF correction =     0.000101


     Computing stress (Cartesian axis) and pressure

          total   stress  (Ry/bohr**3)                   (kbar)     P=       -4.45
  -0.00002375   0.00000000   0.00000000           -3.49        0.00        0.00
   0.00000000  -0.00002375   0.00000000            0.00       -3.49        0.00
   0.00000000   0.00000000  -0.00004321            0.00        0.00       -6.36

     Energy error            =      4.3E-03
     Gradient error          =      3.1E-03
     Cell gradient error     =      4.3E-05


     number of scf cycles    =   2
     number of bfgs steps    =   1

     enthalpy old            =    -391.1452001854 Ry
     enthalpy new            =    -391.1494584558 Ry

     CASE: enthalpy_new < enthalpy_old

     new trust radius        =       0.0053612412 bohr
     new conv_thr            =       0.0000000031 Ry

     new unit-cell volume =    787.91510 a.u.^3 (   116.75697 Ang^3 )
     density =      2.56353 g/cm^3

CELL_PARAMETERS (angstrom)
   4.960972485  -0.000000015   0.000000000
  -2.480485762   4.296328881  -0.000000000
   0.000000000   0.000000000   5.477955320

ATOMIC_POSITIONS (angstrom)
Si            1.3169896055        2.2810928222       -0.0000000000
Si           -1.1634966667        2.0152360505        3.6519720391
Si            2.3269937836       -0.0000000072        1.8259832806
O             0.3112762121        1.7722229727        4.2974378077
O             0.7900612522        3.6797860645        0.6454712467
O            -1.1013290626        3.1406444125        2.4714545272
O             1.3791519971        1.1556844605        1.1805175120
O             3.2705421919        0.6165427956        3.0065007925
O             2.7917575766        2.5241058905        4.8324840730



     Writing output data file ./out/O2Si.save/
     NEW-OLD atomic charge density approx. for the potential

     Check: negative core charge=   -0.000002
     extrapolated charge   47.90573, renormalised to   48.00000

     total cpu time spent up to now is      113.6 secs

     Self-consistent Calculation

     iteration #  1     ecut=    50.00 Ry     beta= 0.30
     Davidson diagonalization with overlap
     ethr =  1.00E-06,  avg # of iterations =  3.0

     total cpu time spent up to now is      117.3 secs

     total energy              =    -391.14892246 Ry
     estimated scf accuracy    <       0.00062404 Ry

     iteration #  2     ecut=    50.00 Ry     beta= 0.30
     Davidson diagonalization with overlap
     ethr =  1.30E-06,  avg # of iterations =  3.0

     total cpu time spent up to now is      120.9 secs

     total energy              =    -391.14958271 Ry
     estimated scf accuracy    <       0.00037334 Ry

     iteration #  3     ecut=    50.00 Ry     beta= 0.30
     Davidson diagonalization with overlap
     ethr =  7.78E-07,  avg # of iterations =  1.0

     total cpu time spent up to now is      123.2 secs

     total energy              =    -391.14945613 Ry
     estimated scf accuracy    <       0.00017235 Ry

     iteration #  4     ecut=    50.00 Ry     beta= 0.30
     Davidson diagonalization with overlap
     ethr =  3.59E-07,  avg # of iterations =  2.8

     total cpu time spent up to now is      126.4 secs

     total energy              =    -391.14952855 Ry
     estimated scf accuracy    <       0.00007784 Ry

     iteration #  5     ecut=    50.00 Ry     beta= 0.30
     Davidson diagonalization with overlap
     ethr =  1.62E-07,  avg # of iterations =  2.0

     total cpu time spent up to now is      129.2 secs

     total energy              =    -391.14953885 Ry
     estimated scf accuracy    <       0.00000167 Ry

     iteration #  6     ecut=    50.00 Ry     beta= 0.30
     Davidson diagonalization with overlap
     ethr =  3.49E-09,  avg # of iterations =  4.7

     total cpu time spent up to now is      133.0 secs

     total energy              =    -391.14953918 Ry
     estimated scf accuracy    <       0.00000745 Ry

     iteration #  7     ecut=    50.00 Ry     beta= 0.30
     Davidson diagonalization with overlap
     ethr =  3.49E-09,  avg # of iterations =  2.9

     total cpu time spent up to now is      136.3 secs

     total energy              =    -391.14953978 Ry
     estimated scf accuracy    <       0.00000061 Ry

     iteration #  8     ecut=    50.00 Ry     beta= 0.30
     Davidson diagonalization with overlap
     ethr =  1.27E-09,  avg # of iterations =  2.9

     total cpu time spent up to now is      139.5 secs

     total energy              =    -391.14954003 Ry
     estimated scf accuracy    <       0.00000004 Ry

     iteration #  9     ecut=    50.00 Ry     beta= 0.30
     Davidson diagonalization with overlap
     ethr =  7.82E-11,  avg # of iterations =  2.0

     total cpu time spent up to now is      142.6 secs

     End of self-consistent calculation

          k = 0.0000 0.0000 0.0000 (  4595 PWs)   bands (ev):

   -16.9845 -15.5302 -15.5302 -14.9025 -14.8853 -14.8853  -5.8919  -5.8918
    -3.0660  -3.0521  -2.8596  -2.8595  -0.5655  -0.5654  -0.3380  -0.1178
     0.8376   0.8376   0.8582   1.2775   1.2775   1.5631   1.9670   1.9670
     7.9840  11.3522  11.3522  11.8068  11.8068

          k =-0.0000-0.0000 0.2243 (  4607 PWs)   bands (ev):

   -16.8683 -16.0590 -15.1006 -14.9024 -14.8962 -14.8723  -6.6652  -4.8731
    -3.2981  -3.1386  -3.1145  -2.4954  -0.6441  -0.3424  -0.2708   0.0681
     0.5657   0.7267   0.8239   0.8246   1.2120   1.7140   2.0492   2.1599
     8.5778  11.1785  11.2235  11.3714  12.2770

          k = 0.0000 0.0000-0.4486 (  4560 PWs)   bands (ev):

   -16.5397 -16.5397 -14.9313 -14.9012 -14.9012 -14.8662  -6.9558  -3.9147
    -3.9147  -3.2241  -3.2240  -2.3012  -0.3814  -0.3814  -0.2765   0.3356
     0.3356   0.5035   0.5035   0.8052   1.0890   2.0305   2.0306   2.1732
     9.9205   9.9206  11.1828  11.7422  11.7422

          k = 0.0000 0.2860-0.0000 (  4602 PWs)   bands (ev):

   -16.8135 -15.7213 -15.5070 -14.9519 -14.9146 -14.8913  -5.9640  -5.5179
    -3.1779  -3.0966  -3.0139  -2.5730  -0.7612  -0.4517  -0.2984   0.1429
     0.3209   0.7431   0.8166   1.2006   1.2886   1.4490   2.0302   2.1137
     8.8623  11.3077  11.3708  11.8908  12.1124

          k = 0.0000 0.2860 0.2243 (  4590 PWs)   bands (ev):

   -16.7139 -16.0388 -15.2786 -14.9443 -14.9322 -14.8887  -6.3391  -4.9320
    -3.5960  -3.0680  -2.7924  -2.6029  -0.8204  -0.3799  -0.2270   0.0818
     0.3613   0.7045   0.8103   1.0409   1.3502   1.5385   1.9740   2.1388
     9.3178  11.0958  11.3879  11.6821  12.3485

          k = 0.0000 0.2860-0.4486 (  4578 PWs)   bands (ev):

   -16.4974 -16.3600 -15.1741 -14.9568 -14.9147 -14.8905  -6.5312  -4.3395
    -4.0053  -3.0540  -2.9447  -2.4186  -0.6659  -0.6398  -0.1237   0.1058
     0.2651   0.7363   0.8471   1.0145   1.2152   1.8150   1.8428   2.1154
    10.2464  10.4450  11.4302  11.7634  12.0604

          k =-0.0000-0.5720 0.0000 (  4552 PWs)   bands (ev):

   -16.5146 -16.0585 -15.4815 -14.9740 -14.9389 -14.9106  -6.0320  -5.0299
    -3.5544  -3.0713  -3.0444  -2.2644  -0.7263  -0.5625  -0.3167   0.0771
     0.2325   0.5674   0.6565   1.1981   1.2765   1.5230   1.9960   2.2186
    10.2008  10.9681  11.6491  11.7271  12.6170

          k =-0.0000-0.5720 0.2243 (  4576 PWs)   bands (ev):

   -16.4850 -16.0434 -15.5378 -14.9762 -14.9436 -14.9046  -5.9601  -4.9793
    -3.8521  -3.0467  -2.7560  -2.4421  -0.7888  -0.7144  -0.1618   0.0301
     0.4133   0.5622   0.8600   1.1352   1.3438   1.5733   1.8229   2.1453
    10.4306  11.0304  11.5768  12.0350  12.4767

          k =-0.0000-0.5720-0.4486 (  4564 PWs)   bands (ev):

   -16.4525 -16.0277 -15.5950 -14.9929 -14.9310 -14.9042  -5.8811  -4.9270
    -4.0557  -2.9427  -2.6892  -2.5793  -0.8426  -0.8240  -0.0876   0.2273
     0.2697   0.7605   1.0352   1.1618   1.4107   1.4253   1.6818   2.0826
    10.6867  11.2377  11.7381  11.9387  12.2509

          k = 0.2477 0.4290-0.0000 (  4578 PWs)   bands (ev):

   -16.5231 -16.0336 -15.5066 -14.9708 -14.9353 -14.9088  -6.0602  -4.9009
    -3.8220  -3.0315  -2.9243  -2.2673  -0.6980  -0.5214  -0.3727   0.1523
     0.1994   0.5263   0.7993   0.9758   1.2471   1.6443   1.9618   2.2338
    10.0759  11.3473  11.3951  12.1385  12.2307

          k = 0.2477 0.4290 0.2243 (  4568 PWs)   bands (ev):

   -16.4863 -16.0442 -15.5311 -14.9690 -14.9521 -14.9086  -5.9719  -4.8819
    -4.0085  -3.0111  -2.7332  -2.4492  -0.8241  -0.5494  -0.3175   0.1254
     0.3663   0.5619   0.9209   1.0841   1.3243   1.5939   1.8434   2.1083
    10.2988  11.2809  11.6117  12.0754  12.2385

          k = 0.2477 0.4290-0.4486 (  4560 PWs)   bands (ev):

   -16.4430 -16.0625 -15.5536 -14.9827 -14.9316 -14.9306  -5.8705  -4.8768
    -4.1587  -2.8504  -2.7690  -2.5769  -0.8811  -0.6565  -0.2153   0.1587
     0.4008   0.6031   1.1378   1.2448   1.3447   1.5621   1.7273   1.8967
    10.6216  11.2941  11.6794  11.9831  12.3904

          k = 0.0000 0.2860-0.2243 (  4590 PWs)   bands (ev):

   -16.7161 -16.0286 -15.3017 -14.9476 -14.9040 -14.8982  -6.3412  -4.9328
    -3.5984  -3.0870  -2.8141  -2.5376  -0.7791  -0.3312  -0.2820  -0.0516
     0.3101   0.8093   0.8785   1.0241   1.4161   1.4516   1.8831   2.2256
     9.2791  11.2385  11.5383  11.6702  12.2663

     the Fermi energy is     5.2847 ev

!    total energy              =    -391.14954004 Ry

     total all-electron energy =     -2644.268486 Ry
     estimated scf accuracy    <          2.4E-09 Ry
     smearing contrib. (-TS)   =      -0.00000000 Ry
     internal energy E=F+TS    =    -391.14954004 Ry

     The total energy is F=E-TS. E is the sum of the following terms:
     one-electron contribution =    -103.24552796 Ry
     hartree contribution      =      77.93788460 Ry
     xc contribution           =     -64.27080624 Ry
     ewald contribution        =    -137.95036941 Ry
     one-center paw contrib.   =    -163.62072103 Ry

     convergence has been achieved in   9 iterations

     Forces acting on atoms (cartesian axes, Ry/au):

     atom    1 type  1   force =    -0.00040292   -0.00069788   -0.00000000
     atom    2 type  1   force =    -0.00040292    0.00069788    0.00000000
     atom    3 type  1   force =     0.00080584   -0.00000000   -0.00000000
     atom    4 type  2   force =    -0.00177285    0.00099743    0.00106293
     atom    5 type  2   force =     0.00002263   -0.00203405    0.00106293
     atom    6 type  2   force =     0.00175022    0.00103662    0.00106293
     atom    7 type  2   force =     0.00175022   -0.00103662   -0.00106293
     atom    8 type  2   force =     0.00002263    0.00203405   -0.00106293
     atom    9 type  2   force =    -0.00177285   -0.00099743   -0.00106293

     Total force =     0.005793     Total SCF correction =     0.000137


     Computing stress (Cartesian axis) and pressure

          total   stress  (Ry/bohr**3)                   (kbar)     P=        0.71
   0.00001053  -0.00000000   0.00000000            1.55       -0.00        0.00
  -0.00000000   0.00001053   0.00000000           -0.00        1.55        0.00
   0.00000000   0.00000000  -0.00000652            0.00        0.00       -0.96

     Energy error            =      8.2E-05
     Gradient error          =      2.0E-03
     Cell gradient error     =      1.1E-05


     number of scf cycles    =   3
     number of bfgs steps    =   2

     enthalpy old            =    -391.1494584558 Ry
     enthalpy new            =    -391.1495400353 Ry

     CASE: enthalpy_new < enthalpy_old

     new trust radius        =       0.0050117934 bohr
     new conv_thr            =       0.0000000008 Ry

     new unit-cell volume =    787.78516 a.u.^3 (   116.73772 Ang^3 )
     density =      2.56396 g/cm^3

CELL_PARAMETERS (angstrom)
   4.962138898  -0.000000015   0.000000000
  -2.481068969   4.297339024   0.000000000
   0.000000000   0.000000000   5.474477357

ATOMIC_POSITIONS (angstrom)
Si            1.3168796793        2.2809024246       -0.0000000000
Si           -1.1641897994        2.0164365916        3.6496533962
Si            2.3283800491       -0.0000000074        1.8248239609
O             0.3093613171        1.7738919246        4.2959397225
O             0.7901565521        3.6783033836        0.6462918008
O            -1.0995094658        3.1424784273        2.4711157617
O             1.3815547993        1.1548605887        1.1785376346
O             3.2712206972        0.6190356197        3.0033615954
O             2.7904258871        2.5234470824        4.8281855563



     Writing output data file ./out/O2Si.save/
     NEW-OLD atomic charge density approx. for the potential

     Check: negative core charge=   -0.000002
     extrapolated charge   47.99208, renormalised to   48.00000

     total cpu time spent up to now is      156.7 secs

     Self-consistent Calculation

     iteration #  1     ecut=    50.00 Ry     beta= 0.30
     Davidson diagonalization with overlap
     ethr =  1.00E-06,  avg # of iterations =  3.0

     Threshold (ethr) on eigenvalues was too large:
     Diagonalizing with lowered threshold

     Davidson diagonalization with overlap
     ethr =  5.91E-08,  avg # of iterations =  2.0

     total cpu time spent up to now is      162.4 secs

     total energy              =    -391.14960158 Ry
     estimated scf accuracy    <       0.00002960 Ry

     iteration #  2     ecut=    50.00 Ry     beta= 0.30
     Davidson diagonalization with overlap
     ethr =  6.17E-08,  avg # of iterations =  2.0

     total cpu time spent up to now is      165.4 secs

     total energy              =    -391.14960756 Ry
     estimated scf accuracy    <       0.00000813 Ry

     iteration #  3     ecut=    50.00 Ry     beta= 0.30
     Davidson diagonalization with overlap
     ethr =  1.69E-08,  avg # of iterations =  1.0

     total cpu time spent up to now is      167.7 secs

     total energy              =    -391.14960629 Ry
     estimated scf accuracy    <       0.00000297 Ry

     iteration #  4     ecut=    50.00 Ry     beta= 0.30
     Davidson diagonalization with overlap
     ethr =  6.19E-09,  avg # of iterations =  2.0

     total cpu time spent up to now is      170.6 secs

     total energy              =    -391.14960693 Ry
     estimated scf accuracy    <       0.00000059 Ry

     iteration #  5     ecut=    50.00 Ry     beta= 0.30
     Davidson diagonalization with overlap
     ethr =  1.23E-09,  avg # of iterations =  2.0

     total cpu time spent up to now is      173.5 secs

     total energy              =    -391.14960701 Ry
     estimated scf accuracy    <       0.00000006 Ry

     iteration #  6     ecut=    50.00 Ry     beta= 0.30
     Davidson diagonalization with overlap
     ethr =  1.19E-10,  avg # of iterations =  3.1

     total cpu time spent up to now is      176.9 secs

     total energy              =    -391.14960699 Ry
     estimated scf accuracy    <       0.00000013 Ry

     iteration #  7     ecut=    50.00 Ry     beta= 0.30
     Davidson diagonalization with overlap
     ethr =  1.19E-10,  avg # of iterations =  3.0

     total cpu time spent up to now is      180.3 secs

     total energy              =    -391.14960703 Ry
     estimated scf accuracy    <          3.1E-09 Ry

     iteration #  8     ecut=    50.00 Ry     beta= 0.30
     Davidson diagonalization with overlap
     ethr =  6.40E-12,  avg # of iterations =  3.2

     total cpu time spent up to now is      183.4 secs

     total energy              =    -391.14960703 Ry
     estimated scf accuracy    <          7.8E-09 Ry

     iteration #  9     ecut=    50.00 Ry     beta= 0.30
     Davidson diagonalization with overlap
     ethr =  6.40E-12,  avg # of iterations =  2.1

     total cpu time spent up to now is      186.4 secs

     End of self-consistent calculation

          k = 0.0000 0.0000 0.0000 (  4595 PWs)   bands (ev):

   -16.9910 -15.5341 -15.5340 -14.9090 -14.8887 -14.8887  -5.8988  -5.8988
    -3.0697  -3.0555  -2.8671  -2.8671  -0.5685  -0.5685  -0.3420  -0.1207
     0.8327   0.8327   0.8543   1.2805   1.2806   1.5669   1.9660   1.9660
     7.9944  11.3594  11.3594  11.8096  11.8097

          k =-0.0000-0.0000 0.2244 (  4607 PWs)   bands (ev):

   -16.8747 -16.0640 -15.1032 -14.9086 -14.9004 -14.8751  -6.6737  -4.8786
    -3.3020  -3.1459  -3.1188  -2.5027  -0.6470  -0.3447  -0.2739   0.0652
     0.5620   0.7224   0.8192   0.8244   1.2140   1.7177   2.0489   2.1618
     8.5881  11.1850  11.2340  11.3753  12.2800

          k = 0.0000 0.0000-0.4489 (  4560 PWs)   bands (ev):

   -16.5456 -16.5455 -14.9334 -14.9065 -14.9064 -14.8689  -6.9650  -3.9193
    -3.9193  -3.2301  -3.2301  -2.3083  -0.3842  -0.3841  -0.2778   0.3342
     0.3342   0.4989   0.4989   0.8002   1.0898   2.0340   2.0340   2.1737
     9.9306   9.9307  11.1867  11.7531  11.7531

          k = 0.0000 0.2859-0.0000 (  4602 PWs)   bands (ev):

   -16.8201 -15.7264 -15.5110 -14.9559 -14.9179 -14.8956  -5.9706  -5.5243
    -3.1841  -3.1015  -3.0181  -2.5798  -0.7633  -0.4546  -0.3015   0.1400
     0.3166   0.7388   0.8123   1.2017   1.2886   1.4494   2.0304   2.1142
     8.8720  11.3151  11.3779  11.8991  12.1176

          k = 0.0000 0.2859 0.2244 (  4590 PWs)   bands (ev):

   -16.7204 -16.0441 -15.2833 -14.9484 -14.9356 -14.8921  -6.3469  -4.9373
    -3.6011  -3.0730  -2.7982  -2.6097  -0.8229  -0.3821  -0.2295   0.0786
     0.3567   0.7006   0.8071   1.0390   1.3522   1.5392   1.9729   2.1411
     9.3278  11.1075  11.3939  11.6904  12.3543

          k = 0.0000 0.2859-0.4489 (  4578 PWs)   bands (ev):

   -16.5035 -16.3659 -15.1795 -14.9601 -14.9180 -14.8936  -6.5396  -4.3444
    -4.0097  -3.0602  -2.9506  -2.4255  -0.6686  -0.6430  -0.1248   0.1035
     0.2605   0.7338   0.8437   1.0114   1.2150   1.8172   1.8448   2.1157
    10.2591  10.4557  11.4381  11.7705  12.0681

          k =-0.0000-0.5719 0.0000 (  4552 PWs)   bands (ev):

   -16.5212 -16.0645 -15.4857 -14.9771 -14.9420 -14.9148  -6.0384  -5.0357
    -3.5603  -3.0763  -3.0490  -2.2715  -0.7275  -0.5648  -0.3192   0.0729
     0.2297   0.5651   0.6514   1.1973   1.2734   1.5201   1.9976   2.2202
    10.2116  10.9769  11.6646  11.7371  12.6185

          k =-0.0000-0.5719 0.2244 (  4576 PWs)   bands (ev):

   -16.4915 -16.0495 -15.5426 -14.9796 -14.9464 -14.9084  -5.9669  -4.9849
    -3.8570  -3.0522  -2.7615  -2.4490  -0.7914  -0.7172  -0.1638   0.0273
     0.4077   0.5596   0.8581   1.1343   1.3413   1.5717   1.8247   2.1456
    10.4438  11.0415  11.5860  12.0458  12.4859

          k =-0.0000-0.5719-0.4489 (  4564 PWs)   bands (ev):

   -16.4588 -16.0337 -15.6004 -14.9965 -14.9333 -14.9078  -5.8885  -4.9324
    -4.0600  -2.9496  -2.6950  -2.5851  -0.8458  -0.8274  -0.0892   0.2253
     0.2627   0.7586   1.0336   1.1599   1.4103   1.4279   1.6812   2.0817
    10.7037  11.2526  11.7477  11.9407  12.2555

          k = 0.2476 0.4289-0.0000 (  4578 PWs)   bands (ev):

   -16.5297 -16.0399 -15.5107 -14.9739 -14.9386 -14.9128  -6.0666  -4.9067
    -3.8275  -3.0362  -2.9291  -2.2748  -0.6996  -0.5239  -0.3760   0.1496
     0.1973   0.5222   0.7991   0.9700   1.2435   1.6440   1.9626   2.2350
    10.0868  11.3602  11.4052  12.1497  12.2347

          k = 0.2476 0.4289 0.2244 (  4568 PWs)   bands (ev):

   -16.4928 -16.0502 -15.5359 -14.9723 -14.9556 -14.9117  -5.9787  -4.8876
    -4.0135  -3.0161  -2.7386  -2.4565  -0.8266  -0.5523  -0.3207   0.1233
     0.3628   0.5589   0.9175   1.0831   1.3219   1.5944   1.8431   2.1092
    10.3116  11.2929  11.6225  12.0858  12.2456

          k = 0.2476 0.4289-0.4489 (  4560 PWs)   bands (ev):

   -16.4494 -16.0684 -15.5592 -14.9871 -14.9339 -14.9333  -5.8779  -4.8824
    -4.1629  -2.8565  -2.7752  -2.5828  -0.8841  -0.6601  -0.2186   0.1569
     0.3956   0.6005   1.1370   1.2435   1.3448   1.5625   1.7279   1.8952
    10.6384  11.3065  11.6879  11.9926  12.4012

          k = 0.0000 0.2859-0.2244 (  4590 PWs)   bands (ev):

   -16.7226 -16.0340 -15.3063 -14.9508 -14.9076 -14.9024  -6.3490  -4.9381
    -3.6035  -3.0917  -2.8199  -2.5449  -0.7820  -0.3343  -0.2838  -0.0540
     0.3055   0.8070   0.8750   1.0208   1.4177   1.4534   1.8823   2.2270
     9.2896  11.2495  11.5454  11.6765  12.2722

     the Fermi energy is     5.2841 ev

!    total energy              =    -391.14960703 Ry

     total all-electron energy =     -2644.268553 Ry
     estimated scf accuracy    <          2.3E-10 Ry
     smearing contrib. (-TS)   =      -0.00000000 Ry
     internal energy E=F+TS    =    -391.14960703 Ry

     The total energy is F=E-TS. E is the sum of the following terms:
     one-electron contribution =    -103.41652802 Ry
     hartree contribution      =      78.02298019 Ry
     xc contribution           =     -64.28007424 Ry
     ewald contribution        =    -137.85536449 Ry
     one-center paw contrib.   =    -163.62062047 Ry

     convergence has been achieved in   9 iterations

     Forces acting on atoms (cartesian axes, Ry/au):

     atom    1 type  1   force =    -0.00042268   -0.00073210    0.00000000
     atom    2 type  1   force =    -0.00042268    0.00073210   -0.00000000
     atom    3 type  1   force =     0.00084536   -0.00000000    0.00000000
     atom    4 type  2   force =    -0.00144283    0.00029070    0.00073848
     atom    5 type  2   force =     0.00046967   -0.00139488    0.00073848
     atom    6 type  2   force =     0.00097317    0.00110418    0.00073848
     atom    7 type  2   force =     0.00097317   -0.00110418   -0.00073848
     atom    8 type  2   force =     0.00046967    0.00139488   -0.00073848
     atom    9 type  2   force =    -0.00144283   -0.00029070   -0.00073848

     Total force =     0.004291     Total SCF correction =     0.000019


     Computing stress (Cartesian axis) and pressure

          total   stress  (Ry/bohr**3)                   (kbar)     P=        3.26
   0.00002652  -0.00000000  -0.00000000            3.90       -0.00       -0.00
  -0.00000000   0.00002652  -0.00000000           -0.00        3.90       -0.00
  -0.00000000  -0.00000000   0.00001348           -0.00       -0.00        1.98

     Energy error            =      6.7E-05
     Gradient error          =      1.4E-03
     Cell gradient error     =      2.7E-05


     number of scf cycles    =   4
     number of bfgs steps    =   3

     enthalpy old            =    -391.1495400353 Ry
     enthalpy new            =    -391.1496070260 Ry

     CASE: enthalpy_new < enthalpy_old

     new trust radius        =       0.0055132357 bohr
     new conv_thr            =       0.0000000007 Ry

     new unit-cell volume =    788.31028 a.u.^3 (   116.81553 Ang^3 )
     density =      2.56225 g/cm^3

CELL_PARAMETERS (angstrom)
   4.964830773  -0.000000016   0.000000000
  -2.482414906   4.299670256   0.000000000
   0.000000000   0.000000000   5.472187778

ATOMIC_POSITIONS (angstrom)
Si            1.3170812479        2.2812515515       -0.0000000000
Si           -1.1653341683        2.0184186964        3.6481270091
Si            2.3306687868       -0.0000000076        1.8240607685
O             0.3072585453        1.7760837432        4.2955032085
O             0.7906557061        3.6777176501        0.6473816717
O            -1.0979058439        3.1455348030        2.4714424401
O             1.3845043559        1.1541354440        1.1766845691
O             3.2730657859        0.6219525846        3.0007453374
O             2.7896690500        2.5235864957        4.8248061059



     Writing output data file ./out/O2Si.save/
     NEW-OLD atomic charge density approx. for the potential

     Check: negative core charge=   -0.000002
     extrapolated charge   48.03197, renormalised to   48.00000

     total cpu time spent up to now is      200.6 secs

     Self-consistent Calculation

     iteration #  1     ecut=    50.00 Ry     beta= 0.30
     Davidson diagonalization with overlap
     ethr =  1.00E-06,  avg # of iterations =  3.0

     total cpu time spent up to now is      204.5 secs

     total energy              =    -391.14962083 Ry
     estimated scf accuracy    <       0.00005349 Ry

     iteration #  2     ecut=    50.00 Ry     beta= 0.30
     Davidson diagonalization with overlap
     ethr =  1.11E-07,  avg # of iterations =  3.2

     total cpu time spent up to now is      208.0 secs

     total energy              =    -391.14968446 Ry
     estimated scf accuracy    <       0.00005417 Ry

     iteration #  3     ecut=    50.00 Ry     beta= 0.30
     Davidson diagonalization with overlap
     ethr =  1.11E-07,  avg # of iterations =  1.0

     total cpu time spent up to now is      210.3 secs

     total energy              =    -391.14966383 Ry
     estimated scf accuracy    <       0.00002945 Ry

     iteration #  4     ecut=    50.00 Ry     beta= 0.30
     Davidson diagonalization with overlap
     ethr =  6.14E-08,  avg # of iterations =  2.1

     total cpu time spent up to now is      213.4 secs

     total energy              =    -391.14968035 Ry
     estimated scf accuracy    <       0.00001795 Ry

     iteration #  5     ecut=    50.00 Ry     beta= 0.30
     Davidson diagonalization with overlap
     ethr =  3.74E-08,  avg # of iterations =  1.0

     total cpu time spent up to now is      215.8 secs

     total energy              =    -391.14967336 Ry
     estimated scf accuracy    <       0.00001188 Ry

     iteration #  6     ecut=    50.00 Ry     beta= 0.30
     Davidson diagonalization with overlap
     ethr =  2.47E-08,  avg # of iterations =  2.0

     total cpu time spent up to now is      218.8 secs

     total energy              =    -391.14967762 Ry
     estimated scf accuracy    <       0.00000029 Ry

     iteration #  7     ecut=    50.00 Ry     beta= 0.30
     Davidson diagonalization with overlap
     ethr =  6.13E-10,  avg # of iterations =  4.1

     total cpu time spent up to now is      222.8 secs

     total energy              =    -391.14967704 Ry
     estimated scf accuracy    <       0.00000478 Ry

     iteration #  8     ecut=    50.00 Ry     beta= 0.30
     Davidson diagonalization with overlap
     ethr =  6.13E-10,  avg # of iterations =  3.0

     total cpu time spent up to now is      226.3 secs

     total energy              =    -391.14967645 Ry
     estimated scf accuracy    <       0.00000158 Ry

     iteration #  9     ecut=    50.00 Ry     beta= 0.30
     Davidson diagonalization with overlap
     ethr =  6.13E-10,  avg # of iterations =  3.0

     total cpu time spent up to now is      229.8 secs

     total energy              =    -391.14967678 Ry
     estimated scf accuracy    <          6.4E-09 Ry

     iteration # 10     ecut=    50.00 Ry     beta= 0.30
     Davidson diagonalization with overlap
     ethr =  1.33E-11,  avg # of iterations =  3.4

     total cpu time spent up to now is      233.0 secs

     total energy              =    -391.14967678 Ry
     estimated scf accuracy    <          6.8E-10 Ry

     iteration # 11     ecut=    50.00 Ry     beta= 0.30
     Davidson diagonalization with overlap
     ethr =  1.42E-12,  avg # of iterations =  2.3

     total cpu time spent up to now is      236.2 secs

     End of self-consistent calculation

          k = 0.0000 0.0000 0.0000 (  4595 PWs)   bands (ev):

   -17.0006 -15.5424 -15.5424 -14.9210 -14.8975 -14.8975  -5.9115  -5.9115
    -3.0781  -3.0647  -2.8800  -2.8800  -0.5759  -0.5759  -0.3515  -0.1291
     0.8216   0.8216   0.8440   1.2772   1.2772   1.5641   1.9579   1.9580
     7.9914  11.3546  11.3547  11.7996  11.7996

          k =-0.0000-0.0000 0.2245 (  4607 PWs)   bands (ev):

   -16.8843 -16.0730 -15.1108 -14.9202 -14.9101 -14.8835  -6.6878  -4.8898
    -3.3109  -3.1586  -3.1290  -2.5154  -0.6546  -0.3514  -0.2827   0.0564
     0.5523   0.7121   0.8085   0.8179   1.2094   1.7148   2.0414   2.1565
     8.5848  11.1801  11.2308  11.3680  12.2707

          k = 0.0000 0.0000-0.4491 (  4560 PWs)   bands (ev):

   -16.5550 -16.5550 -14.9406 -14.9172 -14.9172 -14.8771  -6.9798  -3.9294
    -3.9294  -3.2416  -3.2416  -2.3211  -0.3924  -0.3923  -0.2834   0.3272
     0.3273   0.4882   0.4882   0.7892   1.0842   2.0304   2.0305   2.1671
     9.9269   9.9269  11.1801  11.7525  11.7525

          k = 0.0000 0.2858-0.0000 (  4602 PWs)   bands (ev):

   -16.8300 -15.7361 -15.5196 -14.9652 -14.9265 -14.9054  -5.9830  -5.5366
    -3.1959  -3.1114  -3.0281  -2.5920  -0.7700  -0.4622  -0.3100   0.1313
     0.3065   0.7282   0.8019   1.1966   1.2822   1.4433   2.0238   2.1076
     8.8680  11.3092  11.3717  11.8951  12.1101

          k = 0.0000 0.2858 0.2245 (  4590 PWs)   bands (ev):

   -16.7303 -16.0536 -15.2929 -14.9578 -14.9442 -14.9010  -6.3605  -4.9485
    -3.6118  -3.0835  -2.8094  -2.6220  -0.8302  -0.3899  -0.2369   0.0698
     0.3461   0.6908   0.7976   1.0308   1.3479   1.5335   1.9648   2.1364
     9.3238  11.1051  11.3866  11.6874  12.3474

          k = 0.0000 0.2858-0.4491 (  4578 PWs)   bands (ev):

   -16.5133 -16.3756 -15.1900 -14.9687 -14.9265 -14.9022  -6.5538  -4.3550
    -4.0200  -3.0718  -2.9620  -2.4380  -0.6765  -0.6513  -0.1306   0.0956
     0.2502   0.7252   0.8342   1.0020   1.2082   1.8125   1.8401   2.1091
    10.2567  10.4522  11.4343  11.7663  12.0639

          k =-0.0000-0.5716 0.0000 (  4552 PWs)   bands (ev):

   -16.5316 -16.0747 -15.4946 -14.9853 -14.9503 -14.9245  -6.0505  -5.0473
    -3.5724  -3.0869  -3.0587  -2.2845  -0.7335  -0.5723  -0.3263   0.0635
     0.2209   0.5569   0.6396   1.1904   1.2639   1.5106   1.9922   2.2146
    10.2075  10.9715  11.6667  11.7346  12.6074

          k =-0.0000-0.5716 0.2245 (  4576 PWs)   bands (ev):

   -16.5018 -16.0597 -15.5521 -14.9880 -14.9543 -14.9176  -5.9795  -4.9965
    -3.8679  -3.0632  -2.7724  -2.4615  -0.7989  -0.7250  -0.1710   0.0193
     0.3961   0.5513   0.8500   1.1271   1.3325   1.5634   1.8198   2.1389
    10.4411  11.0382  11.5826  12.0438  12.4823

          k =-0.0000-0.5716-0.4491 (  4564 PWs)   bands (ev):

   -16.4690 -16.0440 -15.6103 -15.0051 -14.9407 -14.9168  -5.9017  -4.9439
    -4.0702  -2.9618  -2.7065  -2.5964  -0.8541  -0.8356  -0.0963   0.2182
     0.2500   0.7509   1.0259   1.1517   1.4035   1.4238   1.6739   2.0736
    10.7032  11.2517  11.7455  11.9314  12.2479

          k = 0.2475 0.4287-0.0000 (  4578 PWs)   bands (ev):

   -16.5400 -16.0502 -15.5195 -14.9820 -14.9473 -14.9222  -6.0788  -4.9185
    -3.8389  -3.0461  -2.9395  -2.2881  -0.7061  -0.5313  -0.3841   0.1414
     0.1894   0.5115   0.7929   0.9580   1.2335   1.6371   1.9566   2.2291
    10.0832  11.3586  11.4015  12.1480  12.2256

          k = 0.2475 0.4287 0.2245 (  4568 PWs)   bands (ev):

   -16.5030 -16.0604 -15.5455 -14.9809 -14.9641 -14.9201  -5.9913  -4.8994
    -4.0243  -3.0264  -2.7495  -2.4695  -0.8340  -0.5604  -0.3288   0.1157
     0.3535   0.5499   0.9078   1.0757   1.3131   1.5883   1.8360   2.1031
    10.3090  11.2906  11.6194  12.0836  12.2404

          k = 0.2475 0.4287-0.4491 (  4560 PWs)   bands (ev):

   -16.4597 -16.0784 -15.5694 -14.9966 -14.9415 -14.9413  -5.8911  -4.8941
    -4.1732  -2.8680  -2.7869  -2.5942  -0.8921  -0.6687  -0.2274   0.1500
     0.3846   0.5921   1.1296   1.2358   1.3384   1.5564   1.7218   1.8868
    10.6376  11.3049  11.6842  11.9895  12.3988

          k = 0.0000 0.2858-0.2245 (  4590 PWs)   bands (ev):

   -16.7324 -16.0436 -15.3157 -14.9592 -14.9169 -14.9115  -6.3626  -4.9493
    -3.6142  -3.1019  -2.8310  -2.5579  -0.7896  -0.3432  -0.2902  -0.0618
     0.2950   0.7984   0.8653   1.0113   1.4128   1.4487   1.8747   2.2213
     9.2859  11.2471  11.5400  11.6699  12.2658

     the Fermi energy is     5.2734 ev

!    total energy              =    -391.14967678 Ry

     total all-electron energy =     -2644.268622 Ry
     estimated scf accuracy    <          1.8E-10 Ry
     smearing contrib. (-TS)   =      -0.00000000 Ry
     internal energy E=F+TS    =    -391.14967678 Ry

     The total energy is F=E-TS. E is the sum of the following terms:
     one-electron contribution =    -103.65992642 Ry
     hartree contribution      =      78.13094283 Ry
     xc contribution           =     -64.28459118 Ry
     ewald contribution        =    -137.71572652 Ry
     one-center paw contrib.   =    -163.62037549 Ry

     convergence has been achieved in  11 iterations

     Forces acting on atoms (cartesian axes, Ry/au):

     atom    1 type  1   force =    -0.00045399   -0.00078634   -0.00000000
     atom    2 type  1   force =    -0.00045399    0.00078634    0.00000000
     atom    3 type  1   force =     0.00090799   -0.00000000   -0.00000000
     atom    4 type  2   force =    -0.00122700   -0.00017457    0.00060195
     atom    5 type  2   force =     0.00076468   -0.00097532    0.00060195
     atom    6 type  2   force =     0.00046232    0.00114990    0.00060195
     atom    7 type  2   force =     0.00046232   -0.00114990   -0.00060195
     atom    8 type  2   force =     0.00076468    0.00097532   -0.00060195
     atom    9 type  2   force =    -0.00122700    0.00017457   -0.00060195

     Total force =     0.003723     Total SCF correction =     0.000003


     Computing stress (Cartesian axis) and pressure

          total   stress  (Ry/bohr**3)                   (kbar)     P=        4.35
   0.00003262  -0.00000000  -0.00000000            4.80       -0.00       -0.00
  -0.00000000   0.00003262  -0.00000000           -0.00        4.80       -0.00
  -0.00000000  -0.00000000   0.00002354           -0.00       -0.00        3.46

     Energy error            =      7.0E-05
     Gradient error          =      1.2E-03
     Cell gradient error     =      3.3E-05


     number of scf cycles    =   5
     number of bfgs steps    =   4

     enthalpy old            =    -391.1496070260 Ry
     enthalpy new            =    -391.1496767796 Ry

     CASE: enthalpy_new < enthalpy_old

     new trust radius        =       0.0082726121 bohr
     new conv_thr            =       0.0000000007 Ry

     new unit-cell volume =    789.50472 a.u.^3 (   116.99253 Ang^3 )
     density =      2.55837 g/cm^3

CELL_PARAMETERS (angstrom)
   4.969642681  -0.000000016   0.000000000
  -2.484820860   4.303837490   0.000000000
   0.000000000   0.000000000   5.469871238

ATOMIC_POSITIONS (angstrom)
Si            1.3175254771        2.2820209788       -0.0000000000
Si           -1.1672958933        2.0218165034        3.6465826489
Si            2.3345922368       -0.0000000081        1.8232885895
O             0.3040874212        1.7794798455        4.2957706997
O             0.7917061137        3.6774405555        0.6491935208
O            -1.0957851202        3.1507502596        2.4724821103
O             1.3890310290        1.1530872209        1.1741005387
O             3.2765221429        0.6263969129        2.9973891281
O             2.7889038753        2.5243576281        4.8206777176



     Writing output data file ./out/O2Si.save/
     NEW-OLD atomic charge density approx. for the potential

     Check: negative core charge=   -0.000002
     extrapolated charge   48.07262, renormalised to   48.00000

     total cpu time spent up to now is      250.4 secs

     Self-consistent Calculation

     iteration #  1     ecut=    50.00 Ry     beta= 0.30
     Davidson diagonalization with overlap
     ethr =  1.00E-06,  avg # of iterations =  3.5

     total cpu time spent up to now is      254.4 secs

     total energy              =    -391.14946631 Ry
     estimated scf accuracy    <       0.00027249 Ry

     iteration #  2     ecut=    50.00 Ry     beta= 0.30
     Davidson diagonalization with overlap
     ethr =  5.68E-07,  avg # of iterations =  3.0

     total cpu time spent up to now is      257.9 secs

     total energy              =    -391.14981137 Ry
     estimated scf accuracy    <       0.00025469 Ry

     iteration #  3     ecut=    50.00 Ry     beta= 0.30
     Davidson diagonalization with overlap
     ethr =  5.31E-07,  avg # of iterations =  1.0

     total cpu time spent up to now is      260.3 secs

     total energy              =    -391.14971511 Ry
     estimated scf accuracy    <       0.00013217 Ry

     iteration #  4     ecut=    50.00 Ry     beta= 0.30
     Davidson diagonalization with overlap
     ethr =  2.75E-07,  avg # of iterations =  2.8

     total cpu time spent up to now is      263.4 secs

     total energy              =    -391.14979668 Ry
     estimated scf accuracy    <       0.00008214 Ry

     iteration #  5     ecut=    50.00 Ry     beta= 0.30
     Davidson diagonalization with overlap
     ethr =  1.71E-07,  avg # of iterations =  1.0

     total cpu time spent up to now is      265.8 secs

     total energy              =    -391.14975697 Ry
     estimated scf accuracy    <       0.00006200 Ry

     iteration #  6     ecut=    50.00 Ry     beta= 0.30
     Davidson diagonalization with overlap
     ethr =  1.29E-07,  avg # of iterations =  2.0

     total cpu time spent up to now is      268.8 secs

     total energy              =    -391.14977960 Ry
     estimated scf accuracy    <       0.00000487 Ry

     iteration #  7     ecut=    50.00 Ry     beta= 0.30
     Davidson diagonalization with overlap
     ethr =  1.02E-08,  avg # of iterations =  2.0

     total cpu time spent up to now is      271.6 secs

     total energy              =    -391.14977721 Ry
     estimated scf accuracy    <       0.00000652 Ry

     iteration #  8     ecut=    50.00 Ry     beta= 0.30
     Davidson diagonalization with overlap
     ethr =  1.02E-08,  avg # of iterations =  2.0

     total cpu time spent up to now is      274.4 secs

     total energy              =    -391.14977750 Ry
     estimated scf accuracy    <       0.00000086 Ry

     iteration #  9     ecut=    50.00 Ry     beta= 0.30
     Davidson diagonalization with overlap
     ethr =  1.80E-09,  avg # of iterations =  2.0

     total cpu time spent up to now is      277.2 secs

     total energy              =    -391.14977762 Ry
     estimated scf accuracy    <       0.00000007 Ry

     iteration # 10     ecut=    50.00 Ry     beta= 0.30
     Davidson diagonalization with overlap
     ethr =  1.49E-10,  avg # of iterations =  3.4

     total cpu time spent up to now is      280.4 secs

     total energy              =    -391.14977765 Ry
     estimated scf accuracy    <          1.5E-09 Ry

     iteration # 11     ecut=    50.00 Ry     beta= 0.30
     Davidson diagonalization with overlap
     ethr =  3.18E-12,  avg # of iterations =  3.5

     total cpu time spent up to now is      283.9 secs

     total energy              =    -391.14977765 Ry
     estimated scf accuracy    <          1.9E-09 Ry

     iteration # 12     ecut=    50.00 Ry     beta= 0.30
     Davidson diagonalization with overlap
     ethr =  3.18E-12,  avg # of iterations =  2.0

     total cpu time spent up to now is      286.9 secs

     End of self-consistent calculation

          k = 0.0000 0.0000 0.0000 (  4595 PWs)   bands (ev):

   -17.0167 -15.5576 -15.5576 -14.9418 -14.9140 -14.9140  -5.9336  -5.9336
    -3.0935  -3.0823  -2.9020  -2.9020  -0.5896  -0.5896  -0.3690  -0.1450
     0.8015   0.8015   0.8248   1.2678   1.2678   1.5557   1.9415   1.9415
     7.9780  11.3397  11.3398  11.7765  11.7765

          k =-0.0000-0.0000 0.2246 (  4607 PWs)   bands (ev):

   -16.9003 -16.0888 -15.1252 -14.9405 -14.9277 -14.8995  -6.7119  -4.9100
    -3.3271  -3.1803  -3.1476  -2.5371  -0.6687  -0.3642  -0.2992   0.0398
     0.5342   0.6930   0.7891   0.8042   1.1983   1.7062   2.0258   2.1440
     8.5709  11.1651  11.2167  11.3496  12.2494

          k = 0.0000 0.0000-0.4493 (  4560 PWs)   bands (ev):

   -16.5710 -16.5710 -14.9545 -14.9362 -14.9362 -14.8929  -7.0047  -3.9476
    -3.9476  -3.2619  -3.2619  -2.3430  -0.4079  -0.4078  -0.2946   0.3132
     0.3132   0.4686   0.4687   0.7694   1.0716   2.0206   2.0206   2.1525
     9.9119   9.9120  11.1632  11.7438  11.7438

          k = 0.0000 0.2855-0.0000 (  4602 PWs)   bands (ev):

   -16.8465 -15.7530 -15.5353 -14.9821 -14.9427 -14.9230  -6.0047  -5.5583
    -3.2166  -3.1291  -3.0464  -2.6131  -0.7827  -0.4764  -0.3262   0.1150
     0.2882   0.7085   0.7826   1.1848   1.2684   1.4303   2.0094   2.0933
     8.8528  11.2914  11.3537  11.8810  12.0907

          k = 0.0000 0.2855 0.2246 (  4590 PWs)   bands (ev):

   -16.7468 -16.0700 -15.3100 -14.9750 -14.9601 -14.9175  -6.3838  -4.9687
    -3.6308  -3.1025  -2.8290  -2.6431  -0.8437  -0.4048  -0.2507   0.0534
     0.3268   0.6725   0.7797   1.0146   1.3370   1.5209   1.9484   2.1247
     9.3084  11.0920  11.3672  11.6755  12.3290

          k = 0.0000 0.2855-0.4493 (  4578 PWs)   bands (ev):

   -16.5299 -16.3920 -15.2085 -14.9847 -14.9424 -14.9182  -6.5780  -4.3741
    -4.0387  -3.0922  -2.9821  -2.4594  -0.6914  -0.6664  -0.1422   0.0802
     0.2313   0.7085   0.8165   0.9843   1.1941   1.8010   1.8287   2.0946
    10.2428  10.4375  11.4204  11.7527  12.0495

          k =-0.0000-0.5710 0.0000 (  4552 PWs)   bands (ev):

   -16.5489 -16.0922 -15.5109 -15.0005 -14.9658 -14.9421  -6.0718  -5.0678
    -3.5938  -3.1061  -3.0761  -2.3068  -0.7456  -0.5868  -0.3397   0.0466
     0.2042   0.5412   0.6181   1.1760   1.2459   1.4925   1.9797   2.2016
    10.1914  10.9541  11.6604  11.7223  12.5828

          k =-0.0000-0.5710 0.2246 (  4576 PWs)   bands (ev):

   -16.5190 -16.0773 -15.5689 -15.0037 -14.9693 -14.9346  -6.0015  -5.0171
    -3.8876  -3.0828  -2.7916  -2.4832  -0.8130  -0.7396  -0.1849   0.0043
     0.3753   0.5354   0.8339   1.1123   1.3154   1.5470   1.8081   2.1243
    10.4261  11.0237  11.5691  12.0320  12.4684

          k =-0.0000-0.5710-0.4493 (  4564 PWs)   bands (ev):

   -16.4862 -16.0617 -15.6275 -15.0211 -14.9551 -14.9334  -5.9245  -4.9647
    -4.0892  -2.9828  -2.7267  -2.6161  -0.8694  -0.8506  -0.1105   0.2044
     0.2278   0.7357   1.0106   1.1356   1.3892   1.4135   1.6587   2.0570
    10.6903  11.2396  11.7339  11.9103  12.2292

          k = 0.2472 0.4282-0.0000 (  4578 PWs)   bands (ev):

   -16.5572 -16.0680 -15.5355 -14.9973 -14.9633 -14.9393  -6.1001  -4.9393
    -3.8591  -3.0640  -2.9586  -2.3109  -0.7189  -0.5453  -0.3990   0.1257
     0.1741   0.4917   0.7798   0.9366   1.2149   1.6226   1.9432   2.2157
    10.0681  11.3460  11.3868  12.1367  12.2035

          k = 0.2472 0.4282 0.2246 (  4568 PWs)   bands (ev):

   -16.5203 -16.0779 -15.5624 -14.9969 -14.9799 -14.9359  -6.0134  -4.9204
    -4.0439  -3.0450  -2.7687  -2.4918  -0.8480  -0.5756  -0.3437   0.1011
     0.3360   0.5329   0.8896   1.0607   1.2961   1.5749   1.8211   2.0896
    10.2948  11.2774  11.6053  12.0715  12.2245

          k = 0.2472 0.4282-0.4493 (  4560 PWs)   bands (ev):

   -16.4770 -16.0955 -15.5872 -15.0137 -14.9562 -14.9562  -5.9141  -4.9150
    -4.1922  -2.8881  -2.8073  -2.6140  -0.9068  -0.6844  -0.2438   0.1365
     0.3648   0.5761   1.1146   1.2203   1.3248   1.5430   1.7085   1.8701
    10.6244  11.2929  11.6707  11.9763  12.3863

          k = 0.0000 0.2855-0.2246 (  4590 PWs)   bands (ev):

   -16.7489 -16.0602 -15.3326 -14.9747 -14.9348 -14.9278  -6.3859  -4.9693
    -3.6332  -3.1206  -2.8504  -2.5802  -0.8036  -0.3600  -0.3026  -0.0766
     0.2759   0.7817   0.8471   0.9933   1.4012   1.4376   1.8590   2.2081
     9.2709  11.2340  11.5236  11.6518  12.2483

     the Fermi energy is     5.2510 ev

!    total energy              =    -391.14977765 Ry

     total all-electron energy =     -2644.268723 Ry
     estimated scf accuracy    <          3.4E-12 Ry
     smearing contrib. (-TS)   =      -0.00000000 Ry
     internal energy E=F+TS    =    -391.14977765 Ry

     The total energy is F=E-TS. E is the sum of the following terms:
     one-electron contribution =    -104.05487274 Ry
     hartree contribution      =      78.30033068 Ry
     xc contribution           =     -64.28792886 Ry
     ewald contribution        =    -137.48738408 Ry
     one-center paw contrib.   =    -163.61992264 Ry

     convergence has been achieved in  12 iterations

     Forces acting on atoms (cartesian axes, Ry/au):

     atom    1 type  1   force =    -0.00047551   -0.00082361    0.00000000
     atom    2 type  1   force =    -0.00047551    0.00082361    0.00000000
     atom    3 type  1   force =     0.00095103   -0.00000000   -0.00000000
     atom    4 type  2   force =    -0.00102397   -0.00066533    0.00050974
     atom    5 type  2   force =     0.00108818   -0.00055412    0.00050974
     atom    6 type  2   force =    -0.00006421    0.00121945    0.00050974
     atom    7 type  2   force =    -0.00006421   -0.00121945   -0.00050974
     atom    8 type  2   force =     0.00108818    0.00055412   -0.00050974
     atom    9 type  2   force =    -0.00102397    0.00066533   -0.00050974

     Total force =     0.003636     Total SCF correction =     0.000003


     Computing stress (Cartesian axis) and pressure

          total   stress  (Ry/bohr**3)                   (kbar)     P=        5.04
   0.00003538  -0.00000000   0.00000000            5.20       -0.00        0.00
  -0.00000000   0.00003538   0.00000000           -0.00        5.20        0.00
  -0.00000000  -0.00000000   0.00003198           -0.00       -0.00        4.70

     Energy error            =      1.0E-04
     Gradient error          =      1.2E-03
     Cell gradient error     =      3.5E-05


     number of scf cycles    =   6
     number of bfgs steps    =   5

     enthalpy old            =    -391.1496767796 Ry
     enthalpy new            =    -391.1497776541 Ry

     CASE: enthalpy_new < enthalpy_old

     new trust radius        =       0.0124170205 bohr
     new conv_thr            =       0.0000000010 Ry

     new unit-cell volume =    791.63322 a.u.^3 (   117.30794 Ang^3 )
     density =      2.55149 g/cm^3

CELL_PARAMETERS (angstrom)
   4.977356764  -0.000000017   0.000000000
  -2.488677902   4.310518082   0.000000000
   0.000000000   0.000000000   5.467630653

ATOMIC_POSITIONS (angstrom)
Si            1.3182550946        2.2832847131       -0.0000000000
Si           -1.1704233173        2.0272333602        3.6450889242
Si            2.3408470849       -0.0000000088        1.8225417283
O             0.2992795997        1.7845089952        4.2972131584
O             0.7936116982        3.6774428700        0.6521297019
O            -1.0928828716        3.1590799704        2.4746714302
O             1.3957903114        1.1514380998        1.1704174941
O             3.2822847612        0.6330751884        2.9929592223
O             2.7879530875        2.5260090699        4.8155009506



     Writing output data file ./out/O2Si.save/
     NEW-OLD atomic charge density approx. for the potential

     Check: negative core charge=   -0.000002
     extrapolated charge   48.12906, renormalised to   48.00000

     total cpu time spent up to now is      301.1 secs

     Self-consistent Calculation

     iteration #  1     ecut=    50.00 Ry     beta= 0.30
     Davidson diagonalization with overlap
     ethr =  1.00E-06,  avg # of iterations =  4.0

     total cpu time spent up to now is      305.7 secs

     total energy              =    -391.14885012 Ry
     estimated scf accuracy    <       0.00094941 Ry

     iteration #  2     ecut=    50.00 Ry     beta= 0.30
     Davidson diagonalization with overlap
     ethr =  1.98E-06,  avg # of iterations =  3.0

     total cpu time spent up to now is      309.4 secs

     total energy              =    -391.15001763 Ry
     estimated scf accuracy    <       0.00086294 Ry

     iteration #  3     ecut=    50.00 Ry     beta= 0.30
     Davidson diagonalization with overlap
     ethr =  1.80E-06,  avg # of iterations =  1.0

     total cpu time spent up to now is      311.8 secs

     total energy              =    -391.14972490 Ry
     estimated scf accuracy    <       0.00042683 Ry

     iteration #  4     ecut=    50.00 Ry     beta= 0.30
     Davidson diagonalization with overlap
     ethr =  8.89E-07,  avg # of iterations =  2.1

     total cpu time spent up to now is      314.9 secs

     total energy              =    -391.14995597 Ry
     estimated scf accuracy    <       0.00015013 Ry

     iteration #  5     ecut=    50.00 Ry     beta= 0.30
     Davidson diagonalization with overlap
     ethr =  3.13E-07,  avg # of iterations =  1.0

     total cpu time spent up to now is      317.2 secs

     total energy              =    -391.14987331 Ry
     estimated scf accuracy    <       0.00013323 Ry

     iteration #  6     ecut=    50.00 Ry     beta= 0.30
     Davidson diagonalization with overlap
     ethr =  2.78E-07,  avg # of iterations =  2.0

     total cpu time spent up to now is      320.3 secs

     total energy              =    -391.14991714 Ry
     estimated scf accuracy    <       0.00000597 Ry

     iteration #  7     ecut=    50.00 Ry     beta= 0.30
     Davidson diagonalization with overlap
     ethr =  1.24E-08,  avg # of iterations =  2.8

     total cpu time spent up to now is      323.3 secs

     total energy              =    -391.14991307 Ry
     estimated scf accuracy    <       0.00001069 Ry

     iteration #  8     ecut=    50.00 Ry     beta= 0.30
     Davidson diagonalization with overlap
     ethr =  1.24E-08,  avg # of iterations =  2.0

     total cpu time spent up to now is      326.3 secs

     total energy              =    -391.14991420 Ry
     estimated scf accuracy    <       0.00000054 Ry

     iteration #  9     ecut=    50.00 Ry     beta= 0.30
     Davidson diagonalization with overlap
     ethr =  1.13E-09,  avg # of iterations =  2.7

     total cpu time spent up to now is      329.3 secs

     total energy              =    -391.14991432 Ry
     estimated scf accuracy    <       0.00000002 Ry

     iteration # 10     ecut=    50.00 Ry     beta= 0.30
     Davidson diagonalization with overlap
     ethr =  4.97E-11,  avg # of iterations =  4.7

     total cpu time spent up to now is      333.2 secs

     total energy              =    -391.14991434 Ry
     estimated scf accuracy    <       0.00000004 Ry

     iteration # 11     ecut=    50.00 Ry     beta= 0.30
     Davidson diagonalization with overlap
     ethr =  4.97E-11,  avg # of iterations =  2.0

     total cpu time spent up to now is      336.2 secs

     total energy              =    -391.14991434 Ry
     estimated scf accuracy    <          5.7E-09 Ry

     iteration # 12     ecut=    50.00 Ry     beta= 0.30
     Davidson diagonalization with overlap
     ethr =  1.19E-11,  avg # of iterations =  3.0

     total cpu time spent up to now is      339.7 secs

     total energy              =    -391.14991435 Ry
     estimated scf accuracy    <          2.2E-09 Ry

     iteration # 13     ecut=    50.00 Ry     beta= 0.30
     Davidson diagonalization with overlap
     ethr =  4.57E-12,  avg # of iterations =  1.0

     total cpu time spent up to now is      342.0 secs

     total energy              =    -391.14991434 Ry
     estimated scf accuracy    <          1.3E-09 Ry

     iteration # 14     ecut=    50.00 Ry     beta= 0.30
     Davidson diagonalization with overlap
     ethr =  2.62E-12,  avg # of iterations =  2.0

     total cpu time spent up to now is      344.9 secs

     End of self-consistent calculation

          k = 0.0000 0.0000 0.0000 (  4595 PWs)   bands (ev):

   -17.0416 -15.5823 -15.5823 -14.9747 -14.9411 -14.9411  -5.9689  -5.9688
    -3.1185  -3.1116  -2.9365  -2.9365  -0.6119  -0.6119  -0.3979  -0.1712
     0.7690   0.7691   0.7930   1.2500   1.2501   1.5402   1.9136   1.9136
     7.9502  11.3106  11.3106  11.7351  11.7351

          k =-0.0000-0.0000 0.2247 (  4607 PWs)   bands (ev):

   -16.9253 -16.1140 -15.1490 -14.9727 -14.9562 -14.9259  -6.7498  -4.9424
    -3.3532  -3.2147  -3.1782  -2.5712  -0.6915  -0.3852  -0.3267   0.0124
     0.5043   0.6618   0.7575   0.7806   1.1782   1.6900   1.9989   2.1217
[...]
O             2.7524434287        2.5472328938        4.8047955393
End final coordinates



     Writing output data file ./out/O2Si.save/

     Final scf calculation at the relaxed structure.
     The G-vectors are recalculated for the final unit cell
     Results may differ from those at the preceding step.

     Parallelization info
     --------------------
     sticks:   dense  smooth     PW     G-vecs:    dense   smooth      PW
     Min         622     309     90                27467     9733    1488
     Max         623     310     91                27469     9738    1489
     Sum        2491    1237    361               109873    38939    5953



     bravais-lattice index     =            0
     lattice parameter (alat)  =       9.2879  a.u.
     unit-cell volume          =     813.3492 (a.u.)^3
     number of atoms/cell      =            9
     number of atomic types    =            2
     number of electrons       =        48.00
     number of Kohn-Sham states=           29
     kinetic-energy cutoff     =      50.0000  Ry
     charge density cutoff     =     400.0000  Ry
     scf convergence threshold =      1.0E-10
     mixing beta               =       0.3000
     number of iterations used =            8  plain     mixing
     press convergence thresh. =      5.0E-01
     Exchange-correlation= SLA  PW   PBX  PBC
                           (   1   4   3   4   0   0   0)

     celldm(1)=   9.287940  celldm(2)=   0.000000  celldm(3)=   0.000000
     celldm(4)=   0.000000  celldm(5)=   0.000000  celldm(6)=   0.000000

     crystal axes: (cart. coord. in units of alat)
               a(1) = (   1.022250  -0.000000   0.000000 )  
               a(2) = (  -0.511125   0.885295   0.000000 )  
               a(3) = (   0.000000   0.000000   1.121693 )  

     reciprocal axes: (cart. coord. in units 2 pi/alat)
               b(1) = (  0.978234  0.564784 -0.000000 )  
               b(2) = (  0.000000  1.129568 -0.000000 )  
               b(3) = ( -0.000000 -0.000000  0.891510 )  


     PseudoPot. # 1 for Si read from file:
     /data/pseudopotentials/Si.pbe-n-kjpaw_psl.1.0.0.UPF
     MD5 check sum: c39c59da582df4a0d9f10159256ea34e
     Pseudo is Projector augmented-wave + core cor, Zval =  4.0
     Generated using &quot;atomic&quot; code by A. Dal Corso  v.6.3
     Shape of augmentation charge: PSQ
     Using radial grid of 1141 points,  6 beta functions with: 
                l(1) =   0
                l(2) =   0
                l(3) =   1
                l(4) =   1
                l(5) =   2
                l(6) =   2
     Q(r) pseudized with 0 coefficients 


     PseudoPot. # 2 for O  read from file:
     /data/pseudopotentials/O.pbe-n-kjpaw_psl.0.1.UPF
     MD5 check sum: 833c495a5d0f9b75bf046115549bffff
     Pseudo is Projector augmented-wave + core cor, Zval =  6.0
     Generated using &quot;atomic&quot; code by A. Dal Corso  v.6.3
     Shape of augmentation charge: BESSEL
     Using radial grid of 1095 points,  4 beta functions with: 
                l(1) =   0
                l(2) =   0
                l(3) =   1
                l(4) =   1
     Q(r) pseudized with 0 coefficients 


     atomic species   valence    mass     pseudopotential
        Si             4.00    28.08500     Si( 1.00)
        O              6.00    15.99900     O ( 1.00)

      6 Sym. Ops. (no inversion) found ( 4 have fractional translation)



   Cartesian axes

     site n.     atom                  positions (alat units)
         1           Si  tau(   1) = (   0.2674048   0.4631587  -0.0000000  )
         2           Si  tau(   2) = (  -0.2437202   0.4221358   0.7477957  )
         3           Si  tau(   3) = (   0.4874404  -0.0000000   0.3738973  )
         4           O   tau(   4) = (   0.0488888   0.3670340   0.8919029  )
         5           O   tau(   5) = (   0.1688205   0.7441155   0.1441083  )
         6           O   tau(   6) = (  -0.2177075   0.6594387   0.5180056  )
         7           O   tau(   7) = (   0.2934164   0.2258559   0.2297901  )
         8           O   tau(   8) = (   0.6799443   0.1411790   0.6036874  )
         9           O   tau(   9) = (   0.5600127   0.5182605   0.9775847  )

     number of k points=    13  Gaussian smearing, width (Ry)=  0.0050
                       cart. coord. in units 2pi/alat
        k(    1) = (   0.0000000   0.0000000   0.0000000), wk =   0.0312500
        k(    2) = (  -0.0000000  -0.0000000   0.2228774), wk =   0.0625000
        k(    3) = (   0.0000000   0.0000000  -0.4457548), wk =   0.0312500
        k(    4) = (   0.0000000   0.2823919  -0.0000000), wk =   0.1875000
        k(    5) = (   0.0000000   0.2823919   0.2228774), wk =   0.1875000
        k(    6) = (   0.0000000   0.2823919  -0.4457548), wk =   0.1875000
        k(    7) = (  -0.0000000  -0.5647838   0.0000000), wk =   0.0937500
        k(    8) = (  -0.0000000  -0.5647838   0.2228774), wk =   0.1875000
        k(    9) = (  -0.0000000  -0.5647838  -0.4457548), wk =   0.0937500
        k(   10) = (   0.2445586   0.4235878  -0.0000000), wk =   0.1875000
        k(   11) = (   0.2445586   0.4235878   0.2228774), wk =   0.3750000
        k(   12) = (   0.2445586   0.4235878  -0.4457548), wk =   0.1875000
        k(   13) = (   0.0000000   0.2823919  -0.2228774), wk =   0.1875000

     Dense  grid:   109873 G-vectors     FFT dimensions: (  64,  64,  72)

     Smooth grid:    38939 G-vectors     FFT dimensions: (  45,  45,  48)

     Estimated max dynamical RAM per process >      72.76 MB

     Estimated total dynamical RAM >     582.04 MB

     Check: negative core charge=   -0.000002

     Initial potential from superposition of free atoms

     starting charge   47.99831, renormalised to   48.00000
     Starting wfcs are   36 randomized atomic wfcs
     Checking if some PAW data can be deallocated... 

     total cpu time spent up to now is      961.2 secs

     Self-consistent Calculation

     iteration #  1     ecut=    50.00 Ry     beta= 0.30
     Davidson diagonalization with overlap
     c_bands:  1 eigenvalues not converged
     c_bands:  1 eigenvalues not converged
     c_bands:  2 eigenvalues not converged
     c_bands:  3 eigenvalues not converged
     c_bands:  1 eigenvalues not converged
     ethr =  1.00E-06,  avg # of iterations = 19.6

     total cpu time spent up to now is      970.9 secs

     total energy              =    -390.90672488 Ry
     estimated scf accuracy    <       2.22245733 Ry

     iteration #  2     ecut=    50.00 Ry     beta= 0.30
     Davidson diagonalization with overlap
     ethr =  4.63E-03,  avg # of iterations =  2.0

     total cpu time spent up to now is      973.8 secs

     total energy              =    -391.08678595 Ry
     estimated scf accuracy    <       0.22629273 Ry

     iteration #  3     ecut=    50.00 Ry     beta= 0.30
     Davidson diagonalization with overlap
     ethr =  4.71E-04,  avg # of iterations =  2.0

     total cpu time spent up to now is      976.9 secs

     total energy              =    -391.14670108 Ry
     estimated scf accuracy    <       0.03869714 Ry

     iteration #  4     ecut=    50.00 Ry     beta= 0.30
     Davidson diagonalization with overlap
     ethr =  8.06E-05,  avg # of iterations =  2.8

     total cpu time spent up to now is      980.0 secs

     total energy              =    -391.14950431 Ry
     estimated scf accuracy    <       0.01004262 Ry

     iteration #  5     ecut=    50.00 Ry     beta= 0.30
     Davidson diagonalization with overlap
     ethr =  2.09E-05,  avg # of iterations =  5.5

     total cpu time spent up to now is      983.5 secs

     total energy              =    -391.15077060 Ry
     estimated scf accuracy    <       0.00018727 Ry

     iteration #  6     ecut=    50.00 Ry     beta= 0.30
     Davidson diagonalization with overlap
     ethr =  3.90E-07,  avg # of iterations =  8.6

     total cpu time spent up to now is      988.0 secs

     total energy              =    -391.15089556 Ry
     estimated scf accuracy    <       0.00017201 Ry

     iteration #  7     ecut=    50.00 Ry     beta= 0.30
     Davidson diagonalization with overlap
     ethr =  3.58E-07,  avg # of iterations =  2.0

     total cpu time spent up to now is      990.9 secs

     total energy              =    -391.15091096 Ry
     estimated scf accuracy    <       0.00001261 Ry

     iteration #  8     ecut=    50.00 Ry     beta= 0.30
     Davidson diagonalization with overlap
     ethr =  2.63E-08,  avg # of iterations =  3.6

     total cpu time spent up to now is      994.3 secs

     total energy              =    -391.15091650 Ry
     estimated scf accuracy    <       0.00000021 Ry

     iteration #  9     ecut=    50.00 Ry     beta= 0.30
     Davidson diagonalization with overlap
     ethr =  4.45E-10,  avg # of iterations =  4.3

     total cpu time spent up to now is      998.1 secs

     total energy              =    -391.15091671 Ry
     estimated scf accuracy    <       0.00000059 Ry

     iteration # 10     ecut=    50.00 Ry     beta= 0.30
     Davidson diagonalization with overlap
     ethr =  4.45E-10,  avg # of iterations =  1.0

     total cpu time spent up to now is     1000.6 secs

     total energy              =    -391.15091648 Ry
     estimated scf accuracy    <       0.00000045 Ry

     iteration # 11     ecut=    50.00 Ry     beta= 0.30
     Davidson diagonalization with overlap
     ethr =  4.45E-10,  avg # of iterations =  2.0

     total cpu time spent up to now is     1003.8 secs

     total energy              =    -391.15091658 Ry
     estimated scf accuracy    <          5.5E-10 Ry

     iteration # 12     ecut=    50.00 Ry     beta= 0.30
     Davidson diagonalization with overlap
     ethr =  1.14E-12,  avg # of iterations =  5.8

     total cpu time spent up to now is     1008.3 secs

     total energy              =    -391.15091658 Ry
     estimated scf accuracy    <          5.5E-10 Ry

     iteration # 13     ecut=    50.00 Ry     beta= 0.30
     Davidson diagonalization with overlap
     ethr =  1.14E-12,  avg # of iterations =  2.0

     total cpu time spent up to now is     1011.3 secs

     total energy              =    -391.15091658 Ry
     estimated scf accuracy    <          2.5E-10 Ry

     iteration # 14     ecut=    50.00 Ry     beta= 0.30
     Davidson diagonalization with overlap
     ethr =  5.29E-13,  avg # of iterations =  2.0

     total cpu time spent up to now is     1014.1 secs

     End of self-consistent calculation

          k = 0.0000 0.0000 0.0000 (  4859 PWs)   bands (ev):

   -17.2653 -15.8305 -15.8305 -15.2350 -15.1989 -15.1989  -6.2977  -6.2976
    -3.4537  -3.3496  -3.2018  -3.2018  -0.8076  -0.8076  -0.6948  -0.4280
     0.4712   0.4712   0.4716   1.0241   1.0242   1.4784   1.6371   1.6371
     7.6472  11.0344  11.0344  11.2872  11.2872

          k =-0.0000-0.0000 0.2229 (  4889 PWs)   bands (ev):

   -17.1524 -16.3585 -15.3940 -15.2311 -15.2099 -15.1904  -7.0996  -5.2466
    -3.5975  -3.5098  -3.5091  -2.8056  -0.8819  -0.6058  -0.5901  -0.2589
     0.1998   0.3660   0.4531   0.5035   0.9779   1.6017   1.7028   1.9013
     8.2249  10.7773  10.9177  10.9490  11.8492

          k = 0.0000 0.0000-0.4458 (  4896 PWs)   bands (ev):

   -16.8317 -16.8317 -15.2214 -15.2214 -15.2196 -15.1870  -7.4030  -4.2501
    -4.2501  -3.6092  -3.6091  -2.5987  -0.6570  -0.6569  -0.5071   0.0092
     0.0092   0.1326   0.1326   0.4127   0.8386   1.8456   1.8473   1.8473
     9.5420   9.5421  10.7337  11.5208  11.5208

          k = 0.0000 0.2824-0.0000 (  4855 PWs)   bands (ev):

   -17.1012 -16.0325 -15.8134 -15.2548 -15.2220 -15.2110  -6.3697  -5.9134
    -3.5214  -3.4379  -3.3874  -2.8965  -1.0182  -0.7216  -0.6110  -0.1409
    -0.0206   0.3592   0.4560   0.9198   1.0037   1.2350   1.7316   1.8264
     8.4956  10.8998  11.0141  11.5435  11.6826

          k = 0.0000 0.2824 0.2229 (  4853 PWs)   bands (ev):

   -17.0057 -16.3444 -15.5912 -15.2474 -15.2329 -15.2073  -6.7612  -5.3133
    -3.9468  -3.4525  -3.1334  -2.9172  -1.0693  -0.6871  -0.4888  -0.2390
     0.0062   0.3640   0.4560   0.6930   1.1157   1.3394   1.6338   1.8917
     8.9399  10.7775  10.9695  11.3812  11.9173

          k = 0.0000 0.2824-0.4458 (  4844 PWs)   bands (ev):

   -16.7981 -16.6585 -15.4884 -15.2510 -15.2184 -15.2083  -6.9632  -4.6987
    -4.3753  -3.4165  -3.3136  -2.7400  -0.9362  -0.9129  -0.3772  -0.2084
    -0.0932   0.3893   0.5107   0.6528   0.9514   1.5616   1.6305   1.8276
     9.8883  10.0692  11.0606  11.4593  11.6903

          k =-0.0000-0.5648 0.0000 (  4884 PWs)   bands (ev):

   -16.8143 -16.3679 -15.7952 -15.2642 -15.2387 -15.2279  -6.4373  -5.4046
    -3.9015  -3.4638  -3.3862  -2.6046  -0.9917  -0.8702  -0.5459  -0.2256
    -0.0686   0.2416   0.3081   0.8926   0.9505   1.1699   1.7083   1.9577
     9.7993  10.5775  11.3958  11.4683  12.0572

          k =-0.0000-0.5648 0.2229 (  4852 PWs)   bands (ev):

   -16.7896 -16.3562 -15.8434 -15.2659 -15.2405 -15.2224  -6.3637  -5.3636
    -4.2232  -3.4218  -3.0923  -2.7910  -1.0603  -1.0004  -0.4491  -0.2343
     0.0385   0.2805   0.5515   0.8399   1.0036   1.2466   1.5622   1.8573
    10.0405  10.6827  11.2471  11.7601  12.0707

          k =-0.0000-0.5648-0.4458 (  4844 PWs)   bands (ev):

   -16.7628 -16.3440 -15.8918 -15.2805 -15.2269 -15.2218  -6.2818  -5.3217
    -4.4458  -3.2866  -3.0600  -2.9151  -1.1204  -1.0961  -0.3906  -0.1046
    -0.0519   0.4943   0.7259   0.8187   1.1255   1.2098   1.3709   1.7620
    10.3429  10.9100  11.3672  11.5319  11.9161

          k = 0.2446 0.4236-0.0000 (  4869 PWs)   bands (ev):

   -16.8219 -16.3455 -15.8187 -15.2619 -15.2384 -15.2219  -6.4690  -5.2738
    -4.1668  -3.3813  -3.3125  -2.6039  -0.9776  -0.8093  -0.6111  -0.1551
    -0.0772   0.1394   0.5373   0.6003   0.9183   1.3363   1.6840   1.9480
     9.6982  10.9904  11.0432  11.7313  11.8894

          k = 0.2446 0.4236 0.2229 (  4853 PWs)   bands (ev):

   -16.7912 -16.3543 -15.8410 -15.2625 -15.2506 -15.2187  -6.3812  -5.2594
    -4.3790  -3.3830  -3.0774  -2.7917  -1.0946  -0.8392  -0.5951  -0.1652
     0.0473   0.2409   0.5658   0.7889   1.0259   1.3007   1.5473   1.8269
     9.9270  10.9208  11.2772  11.7260  11.9345

          k = 0.2446 0.4236-0.4458 (  4844 PWs)   bands (ev):

   -16.7563 -16.3684 -15.8620 -15.2757 -15.2357 -15.2305  -6.2798  -5.2579
    -4.5528  -3.1988  -3.1328  -2.9100  -1.1488  -0.9398  -0.5361  -0.1219
     0.0535   0.2973   0.8249   0.9369   1.0708   1.2731   1.4778   1.5733
    10.2544  10.9610  11.4046  11.6171  12.0661

          k = 0.0000 0.2824-0.2229 (  4853 PWs)   bands (ev):

   -17.0072 -16.3378 -15.6065 -15.2419 -15.2218 -15.2137  -6.7631  -5.3118
    -3.9482  -3.4669  -3.1477  -2.8751  -1.0356  -0.6588  -0.5187  -0.3471
    -0.0488   0.4653   0.5291   0.6668   1.1732   1.2539   1.5782   1.9466
     8.9090  10.8937  11.1338  11.3048  11.8950

     the Fermi energy is     4.8047 ev

!    total energy              =    -391.15091658 Ry

     total all-electron energy =     -2644.269862 Ry
     estimated scf accuracy    <          3.9E-11 Ry
     smearing contrib. (-TS)   =      -0.00000000 Ry
     internal energy E=F+TS    =    -391.15091658 Ry

     The total energy is F=E-TS. E is the sum of the following terms:
     one-electron contribution =    -109.96176495 Ry
     hartree contribution      =      80.73766742 Ry
     xc contribution           =     -64.28242004 Ry
     ewald contribution        =    -134.03129543 Ry
     one-center paw contrib.   =    -163.61310359 Ry

     convergence has been achieved in  14 iterations

     Forces acting on atoms (cartesian axes, Ry/au):

     atom    1 type  1   force =    -0.00001664   -0.00002882    0.00000000
     atom    2 type  1   force =    -0.00001664    0.00002882    0.00000000
     atom    3 type  1   force =     0.00003328   -0.00000000   -0.00000000
     atom    4 type  2   force =     0.00002719   -0.00000568   -0.00000804
     atom    5 type  2   force =    -0.00000868    0.00002638   -0.00000804
     atom    6 type  2   force =    -0.00001851   -0.00002071   -0.00000804
     atom    7 type  2   force =    -0.00001851    0.00002071    0.00000804
     atom    8 type  2   force =    -0.00000868   -0.00002638    0.00000804
     atom    9 type  2   force =     0.00002719    0.00000568    0.00000804

     Total force =     0.000091     Total SCF correction =     0.000011
     SCF correction compared to forces is large: reduce conv_thr to get better values


     Computing stress (Cartesian axis) and pressure

          total   stress  (Ry/bohr**3)                   (kbar)     P=        0.38
   0.00000250  -0.00000000  -0.00000000            0.37       -0.00       -0.00
  -0.00000000   0.00000250  -0.00000000           -0.00        0.37       -0.00
   0.00000000   0.00000000   0.00000275            0.00        0.00        0.40


     Writing output data file ./out/O2Si.save/

     init_run     :      9.87s CPU     10.01s WALL (       2 calls)
     electrons    :    720.52s CPU    737.94s WALL (      20 calls)
     update_pot   :     84.02s CPU     84.11s WALL (      18 calls)
     forces       :     55.66s CPU     56.14s WALL (      20 calls)
     stress       :    120.82s CPU    121.73s WALL (      20 calls)

     Called by init_run:
     wfcinit      :      1.46s CPU      1.49s WALL (       2 calls)
     potinit      :      3.26s CPU      3.29s WALL (       2 calls)
     hinit0       :      4.87s CPU      4.88s WALL (       2 calls)

     Called by electrons:
     c_bands      :    494.65s CPU    502.68s WALL (     234 calls)
     sum_band     :     73.46s CPU     78.51s WALL (     234 calls)
     v_of_rho     :     13.25s CPU     13.54s WALL (     249 calls)
     newd         :     23.74s CPU     27.79s WALL (     249 calls)
     PAW_pot      :    133.91s CPU    133.99s WALL (     267 calls)
     mix_rho      :      1.85s CPU      1.92s WALL (     234 calls)

     Called by c_bands:
     init_us_2    :      4.19s CPU      4.24s WALL (    3696 calls)
     cegterg      :    473.01s CPU    480.93s WALL (    1638 calls)

     Called by *egterg:
     cdiaghg      :     16.26s CPU     16.53s WALL (    5839 calls)
     h_psi        :    251.14s CPU    258.25s WALL (    6014 calls)
     s_psi        :     62.98s CPU     63.08s WALL (    6014 calls)
     g_psi        :      1.20s CPU      1.20s WALL (    4362 calls)

     Called by h_psi:
     h_psi:calbec :     62.56s CPU     62.97s WALL (    6014 calls)
     vloc_psi     :    124.46s CPU    131.11s WALL (    6014 calls)
     add_vuspsi   :     63.28s CPU     63.35s WALL (    6014 calls)

     General routines
     calbec       :     94.82s CPU     95.40s WALL (    8478 calls)
     fft          :      9.32s CPU      9.82s WALL (    3720 calls)
     ffts         :      0.34s CPU      0.36s WALL (     483 calls)
     fftw         :    125.83s CPU    132.49s WALL (  321722 calls)
     interpolate  :      0.89s CPU      0.94s WALL (     249 calls)

     Parallel routines
     fft_scatt_xy :     17.35s CPU     18.16s WALL (  325925 calls)
     fft_scatt_yz :     25.37s CPU     27.21s WALL (  325925 calls)

     PWSCF        :  16m44.27s CPU  17m 3.70s WALL


   This run was terminated on:   3:52:46   1Jul2026            

=------------------------------------------------------------------------------=
   JOB DONE.
=------------------------------------------------------------------------------=
Note: The following floating-point exceptions are signalling: IEEE_DENORMAL
Note: The following floating-point exceptions are signalling: IEEE_DENORMAL
Note: The following floating-point exceptions are signalling: IEEE_DENORMAL
Note: The following floating-point exceptions are signalling: IEEE_DENORMAL
Note: The following floating-point exceptions are signalling: IEEE_DENORMAL
Note: The following floating-point exceptions are signalling: IEEE_DENORMAL
Note: The following floating-point exceptions are signalling: IEEE_DENORMAL
Note: The following floating-point exceptions are signalling: IEEE_DENORMAL
