
     Program PWSCF v.6.7MaX starts on  1Jul2026 at  4:26:58 

     This program is part of the open-source Quantum ESPRESSO suite
     for quantum simulation of materials; please cite
         "P. Giannozzi et al., J. Phys.:Condens. Matter 21 395502 (2009);
         "P. Giannozzi et al., J. Phys.:Condens. Matter 29 465901 (2017);
          URL http://www.quantum-espresso.org", 
     in publications or presentations arising from this work. More details at
     http://www.quantum-espresso.org/quote

     Parallel version (MPI), running on     8 processors

     MPI processes distributed on     1 nodes
     K-points division:     npool     =       2
     R & G space division:  proc/nbgrp/npool/nimage =       4
     Waiting for input...
     Reading input from standard input
Warning: card &CELL ignored
Warning: card / ignored

     Current dimensions of program PWSCF are:
     Max number of different atomic species (ntypx) = 10
     Max number of k-points (npk) =  40000
     Max angular momentum in pseudopotentials (lmaxx) =  3
     file Si.pbe-n-kjpaw_psl.1.0.0.UPF: wavefunction(s)  3S 3P renormalized
     file O.pbe-n-kjpaw_psl.0.1.UPF: wavefunction(s)  2P renormalized

     Subspace diagonalization in iterative solution of the eigenvalue problem:
     one sub-group per band group will be used
     scalapack distributed-memory algorithm (size of sub-group:  2*  2 procs)


     Parallelization info
     --------------------
     sticks:   dense  smooth     PW     G-vecs:    dense   smooth      PW
     Min         595     297     91                25899     9125    1540
     Max         596     298     93                25904     9128    1541
     Sum        2383    1189    367               103607    36503    6163



     bravais-lattice index     =            0
     lattice parameter (alat)  =       9.2879  a.u.
     unit-cell volume          =     766.7826 (a.u.)^3
     number of atoms/cell      =            9
     number of atomic types    =            2
     number of electrons       =        48.00
     number of Kohn-Sham states=           24
     kinetic-energy cutoff     =      50.0000  Ry
     charge density cutoff     =     400.0000  Ry
     scf convergence threshold =      1.0E-10
     mixing beta               =       0.3000
     number of iterations used =            8  plain     mixing
     Exchange-correlation= SLA  PW   PBX  PBC
                           (   1   4   3   4   0   0   0)

     celldm(1)=   9.287940  celldm(2)=   0.000000  celldm(3)=   0.000000
     celldm(4)=   0.000000  celldm(5)=   0.000000  celldm(6)=   0.000000

     crystal axes: (cart. coord. in units of alat)
               a(1) = (   1.000000  -0.000000   0.000000 )  
               a(2) = (  -0.500000   0.866026  -0.000000 )  
               a(3) = (   0.000000   0.000000   1.105054 )  

     reciprocal axes: (cart. coord. in units 2 pi/alat)
               b(1) = (  1.000000  0.577350 -0.000000 )  
               b(2) = (  0.000000  1.154700 -0.000000 )  
               b(3) = (  0.000000  0.000000  0.904933 )  


     PseudoPot. # 1 for Si read from file:
     /data/pseudopotentials/Si.pbe-n-kjpaw_psl.1.0.0.UPF
     MD5 check sum: c39c59da582df4a0d9f10159256ea34e
     Pseudo is Projector augmented-wave + core cor, Zval =  4.0
     Generated using &quot;atomic&quot; code by A. Dal Corso  v.6.3
     Shape of augmentation charge: PSQ
     Using radial grid of 1141 points,  6 beta functions with: 
                l(1) =   0
                l(2) =   0
                l(3) =   1
                l(4) =   1
                l(5) =   2
                l(6) =   2
     Q(r) pseudized with 0 coefficients 


     PseudoPot. # 2 for O  read from file:
     /data/pseudopotentials/O.pbe-n-kjpaw_psl.0.1.UPF
     MD5 check sum: 833c495a5d0f9b75bf046115549bffff
     Pseudo is Projector augmented-wave + core cor, Zval =  6.0
     Generated using &quot;atomic&quot; code by A. Dal Corso  v.6.3
     Shape of augmentation charge: BESSEL
     Using radial grid of 1095 points,  4 beta functions with: 
                l(1) =   0
                l(2) =   0
                l(3) =   1
                l(4) =   1
     Q(r) pseudized with 0 coefficients 


     atomic species   valence    mass     pseudopotential
        Si             4.00    28.08500     Si( 1.00)
        O              6.00    15.99900     O ( 1.00)

     No symmetry found



   Cartesian axes

     site n.     atom                  positions (alat units)
         1           Si  tau(   1) = (   0.2655443   0.4599363   0.0000000  )
         2           Si  tau(   2) = (  -0.2344557   0.4060893   0.7367028  )
         3           Si  tau(   3) = (   0.4689114  -0.0000000   0.3683508  )
         4           O   tau(   4) = (   0.0625260   0.3580100   0.8673466  )
         5           O   tau(   5) = (   0.1586919   0.7411688   0.1306449  )
         6           O   tau(   6) = (  -0.2212162   0.6328715   0.4989958  )
         7           O   tau(   7) = (   0.2787828   0.2331541   0.2377070  )
         8           O   tau(   8) = (   0.6586908   0.1248568   0.6060579  )
         9           O   tau(   9) = (   0.5625250   0.5080155   0.9744087  )

     number of k points=    36
                       cart. coord. in units 2pi/alat
        k(    1) = (   0.0000000   0.0000000   0.0000000), wk =   0.0312500
        k(    2) = (   0.0000000   0.0000000   0.2262334), wk =   0.0625000
        k(    3) = (   0.0000000   0.0000000  -0.4524667), wk =   0.0312500
        k(    4) = (   0.0000000   0.2886751   0.0000000), wk =   0.0625000
        k(    5) = (   0.0000000   0.2886751   0.2262334), wk =   0.0625000
        k(    6) = (   0.0000000   0.2886751  -0.4524667), wk =   0.0625000
        k(    7) = (   0.0000000   0.2886751  -0.2262334), wk =   0.0625000
        k(    8) = (  -0.0000000  -0.5773502   0.0000000), wk =   0.0312500
        k(    9) = (  -0.0000000  -0.5773502   0.2262334), wk =   0.0625000
        k(   10) = (  -0.0000000  -0.5773502  -0.4524667), wk =   0.0312500
        k(   11) = (   0.2500000   0.1443375   0.0000000), wk =   0.0625000
        k(   12) = (   0.2500000   0.1443375   0.2262334), wk =   0.0625000
        k(   13) = (   0.2500000   0.1443375  -0.4524667), wk =   0.0625000
        k(   14) = (   0.2500000   0.1443375  -0.2262334), wk =   0.0625000
        k(   15) = (   0.2500000   0.4330126   0.0000000), wk =   0.0625000
        k(   16) = (   0.2500000   0.4330126   0.2262334), wk =   0.0625000
        k(   17) = (   0.2500000   0.4330126  -0.4524667), wk =   0.0625000
        k(   18) = (   0.2500000   0.4330126  -0.2262334), wk =   0.0625000
        k(   19) = (   0.2500000  -0.4330127   0.0000000), wk =   0.0625000
        k(   20) = (   0.2500000  -0.4330127   0.2262334), wk =   0.0625000
        k(   21) = (   0.2500000  -0.4330127  -0.4524667), wk =   0.0625000
        k(   22) = (   0.2500000  -0.4330127  -0.2262334), wk =   0.0625000
        k(   23) = (   0.2500000  -0.1443376   0.0000000), wk =   0.0625000
        k(   24) = (   0.2500000  -0.1443376   0.2262334), wk =   0.0625000
        k(   25) = (   0.2500000  -0.1443376  -0.4524667), wk =   0.0625000
        k(   26) = (   0.2500000  -0.1443376  -0.2262334), wk =   0.0625000
        k(   27) = (  -0.5000000  -0.2886750   0.0000000), wk =   0.0312500
        k(   28) = (  -0.5000000  -0.2886750   0.2262334), wk =   0.0625000
        k(   29) = (  -0.5000000  -0.2886750  -0.4524667), wk =   0.0312500
        k(   30) = (  -0.5000000   0.0000001   0.0000000), wk =   0.0625000
        k(   31) = (  -0.5000000   0.0000001   0.2262334), wk =   0.0625000
        k(   32) = (  -0.5000000   0.0000001  -0.4524667), wk =   0.0625000
        k(   33) = (  -0.5000000   0.0000001  -0.2262334), wk =   0.0625000
        k(   34) = (  -0.5000000  -0.8660252   0.0000000), wk =   0.0312500
        k(   35) = (  -0.5000000  -0.8660252   0.2262334), wk =   0.0625000
        k(   36) = (  -0.5000000  -0.8660252  -0.4524667), wk =   0.0312500

     Dense  grid:   103607 G-vectors     FFT dimensions: (  60,  60,  72)

     Smooth grid:    36503 G-vectors     FFT dimensions: (  45,  45,  48)

     Estimated max dynamical RAM per process >      68.98 MB

     Estimated total dynamical RAM >     551.82 MB

     Check: negative core charge=   -0.000002

     Initial potential from superposition of free atoms

     starting charge   47.99831, renormalised to   48.00000
     Starting wfcs are   36 randomized atomic wfcs
     Checking if some PAW data can be deallocated... 

     total cpu time spent up to now is        4.8 secs

     Self-consistent Calculation

     iteration #  1     ecut=    50.00 Ry     beta= 0.30
     Davidson diagonalization with overlap
     ethr =  1.00E-02,  avg # of iterations =  2.0

     total cpu time spent up to now is       10.6 secs

     total energy              =    -390.84298556 Ry
     estimated scf accuracy    <       2.32301494 Ry

     iteration #  2     ecut=    50.00 Ry     beta= 0.30
     Davidson diagonalization with overlap
     ethr =  4.84E-03,  avg # of iterations =  2.0

     total cpu time spent up to now is       15.8 secs

     total energy              =    -391.06500152 Ry
     estimated scf accuracy    <       0.24303305 Ry

     iteration #  3     ecut=    50.00 Ry     beta= 0.30
     Davidson diagonalization with overlap
     ethr =  5.06E-04,  avg # of iterations =  2.2

     total cpu time spent up to now is       21.6 secs

     total energy              =    -391.14160228 Ry
     estimated scf accuracy    <       0.04287841 Ry

     iteration #  4     ecut=    50.00 Ry     beta= 0.30
     Davidson diagonalization with overlap
     ethr =  8.93E-05,  avg # of iterations =  2.0

     total cpu time spent up to now is       27.1 secs

     total energy              =    -391.14396235 Ry
     estimated scf accuracy    <       0.01088814 Ry

     iteration #  5     ecut=    50.00 Ry     beta= 0.30
     Davidson diagonalization with overlap
     ethr =  2.27E-05,  avg # of iterations =  2.0

     total cpu time spent up to now is       32.2 secs

     total energy              =    -391.14503368 Ry
     estimated scf accuracy    <       0.00050631 Ry

     iteration #  6     ecut=    50.00 Ry     beta= 0.30
     Davidson diagonalization with overlap
     ethr =  1.05E-06,  avg # of iterations =  3.0

     total cpu time spent up to now is       38.4 secs

     total energy              =    -391.14516850 Ry
     estimated scf accuracy    <       0.00005672 Ry

     iteration #  7     ecut=    50.00 Ry     beta= 0.30
     Davidson diagonalization with overlap
     ethr =  1.18E-07,  avg # of iterations =  3.6

     total cpu time spent up to now is       45.0 secs

     total energy              =    -391.14519710 Ry
     estimated scf accuracy    <       0.00000698 Ry

     iteration #  8     ecut=    50.00 Ry     beta= 0.30
     Davidson diagonalization with overlap
     ethr =  1.45E-08,  avg # of iterations =  2.2

     total cpu time spent up to now is       50.4 secs

     total energy              =    -391.14519933 Ry
     estimated scf accuracy    <       0.00000050 Ry

     iteration #  9     ecut=    50.00 Ry     beta= 0.30
     Davidson diagonalization with overlap
     ethr =  1.04E-09,  avg # of iterations =  3.1

     total cpu time spent up to now is       56.6 secs

     total energy              =    -391.14519933 Ry
     estimated scf accuracy    <       0.00000043 Ry

     iteration # 10     ecut=    50.00 Ry     beta= 0.30
     Davidson diagonalization with overlap
     ethr =  8.92E-10,  avg # of iterations =  2.0

     total cpu time spent up to now is       62.0 secs

     total energy              =    -391.14519940 Ry
     estimated scf accuracy    <       0.00000002 Ry

     iteration # 11     ecut=    50.00 Ry     beta= 0.30
     Davidson diagonalization with overlap
     ethr =  4.01E-11,  avg # of iterations =  2.1

     total cpu time spent up to now is       67.5 secs

     total energy              =    -391.14519940 Ry
     estimated scf accuracy    <       0.00000002 Ry

     iteration # 12     ecut=    50.00 Ry     beta= 0.30
     Davidson diagonalization with overlap
     ethr =  4.01E-11,  avg # of iterations =  3.0

     total cpu time spent up to now is       73.7 secs

     total energy              =    -391.14519941 Ry
     estimated scf accuracy    <          1.2E-09 Ry

     iteration # 13     ecut=    50.00 Ry     beta= 0.30
     Davidson diagonalization with overlap
     ethr =  2.47E-12,  avg # of iterations =  2.0

     total cpu time spent up to now is       79.3 secs

     End of self-consistent calculation

          k = 0.0000 0.0000 0.0000 (  4595 PWs)   bands (ev):

   -16.9033 -15.3940 -15.3939 -14.7436 -14.7152 -14.7152  -5.7244  -5.7244
    -2.9166  -2.8734  -2.7050  -2.7050  -0.4292  -0.4292  -0.1759   0.0561
     1.0245   1.0245   1.0505   1.4952   1.4952   1.8044   2.1927   2.1927

          k = 0.0000 0.0000 0.2262 (  4607 PWs)   bands (ev):

   -16.7830 -15.9436 -14.9463 -14.7424 -14.7297 -14.6994  -6.5101  -4.6983
    -3.1440  -2.9864  -2.9430  -2.3327  -0.4994  -0.2032  -0.1006   0.2492
     0.7472   0.9103   1.0031   1.0251   1.4314   1.9563   2.2784   2.4010

          k = 0.0000 0.0000-0.4525 (  4560 PWs)   bands (ev):

   -16.4424 -16.4424 -14.7694 -14.7383 -14.7383 -14.6923  -6.8066  -3.7468
    -3.7468  -3.0660  -3.0660  -2.1319  -0.2097  -0.2097  -0.1372   0.5082
     0.5082   0.6896   0.6896   0.9809   1.3051   2.2764   2.2764   2.4083

          k = 0.0000 0.2887 0.0000 (  4602 PWs)   bands (ev):

   -16.7262 -15.5920 -15.3675 -14.7934 -14.7485 -14.7254  -5.7975  -5.3450
    -3.0118  -2.9445  -2.8423  -2.4096  -0.6203  -0.3057  -0.1349   0.3233
     0.4943   0.9364   1.0046   1.4096   1.5028   1.6661   2.2595   2.3478

          k = 0.0000 0.2887 0.2262 (  4590 PWs)   bands (ev):

   -16.6227 -15.9214 -15.1317 -14.7830 -14.7715 -14.7193  -6.1775  -4.7547
    -3.4330  -2.9023  -2.6320  -2.4387  -0.6772  -0.2099  -0.0748   0.2485
     0.5392   0.8902   1.0042   1.2369   1.5703   1.7614   2.1990   2.3794

          k = 0.0000 0.2887-0.4525 (  4578 PWs)   bands (ev):

   -16.3971 -16.2559 -15.0244 -14.7983 -14.7502 -14.7204  -6.3726  -4.1662
    -3.8301  -2.8964  -2.7829  -2.2514  -0.5045  -0.4863   0.0266   0.2782
     0.4384   0.9271   1.0364   1.2064   1.4280   2.0475   2.0769   2.3500

          k = 0.0000 0.2887-0.2262 (  4590 PWs)   bands (ev):

   -16.6250 -15.9108 -15.1562 -14.7876 -14.7389 -14.7309  -6.1799  -4.7559
    -3.4346  -2.9216  -2.6556  -2.3702  -0.6355  -0.1553  -0.1354   0.1145
     0.4860   1.0020   1.0683   1.2173   1.6337   1.6777   2.1080   2.4660

          k =-0.0000-0.5774 0.0000 (  4552 PWs)   bands (ev):

   -16.4161 -15.9424 -15.3381 -14.8170 -14.7778 -14.7454  -5.8665  -4.8584
    -3.3670  -2.9037  -2.8917  -2.0890  -0.5732  -0.4025  -0.1695   0.2300
     0.4198   0.7554   0.8532   1.4005   1.4795   1.7278   2.2265   2.4596

          k =-0.0000-0.5774 0.2262 (  4576 PWs)   bands (ev):

   -16.3841 -15.9263 -15.4015 -14.8186 -14.7821 -14.7380  -5.7944  -4.8023
    -3.6708  -2.8853  -2.5942  -2.2719  -0.6384  -0.5587  -0.0038   0.1926
     0.5897   0.7470   1.0592   1.3409   1.5460   1.7858   2.0504   2.3824

          k =-0.0000-0.5774-0.4525 (  4564 PWs)   bands (ev):

   -16.3487 -15.9093 -15.4654 -14.8374 -14.7666 -14.7367  -5.7156  -4.7440
    -3.8737  -2.7872  -2.5232  -2.4168  -0.6901  -0.6751   0.0842   0.3909
     0.4350   0.9495   1.2334   1.3590   1.6206   1.6543   1.9016   2.3146

          k = 0.2500 0.1443 0.0000 (  4602 PWs)   bands (ev):

   -16.7262 -15.5920 -15.3675 -14.7934 -14.7485 -14.7254  -5.7975  -5.3450
    -3.0118  -2.9445  -2.8423  -2.4096  -0.6203  -0.3057  -0.1349   0.3233
     0.4943   0.9364   1.0046   1.4096   1.5028   1.6661   2.2595   2.3478

          k = 0.2500 0.1443 0.2262 (  4590 PWs)   bands (ev):

   -16.6250 -15.9108 -15.1562 -14.7876 -14.7389 -14.7309  -6.1799  -4.7559
    -3.4346  -2.9216  -2.6556  -2.3702  -0.6355  -0.1553  -0.1354   0.1145
     0.4860   1.0020   1.0683   1.2173   1.6337   1.6777   2.1080   2.4660

          k = 0.2500 0.1443-0.4525 (  4578 PWs)   bands (ev):

   -16.3971 -16.2559 -15.0244 -14.7983 -14.7502 -14.7204  -6.3726  -4.1662
    -3.8301  -2.8964  -2.7829  -2.2514  -0.5045  -0.4863   0.0266   0.2782
     0.4384   0.9271   1.0364   1.2064   1.4280   2.0475   2.0769   2.3500

          k = 0.2500 0.1443-0.2262 (  4590 PWs)   bands (ev):

   -16.6227 -15.9214 -15.1317 -14.7830 -14.7715 -14.7193  -6.1775  -4.7547
    -3.4330  -2.9023  -2.6320  -2.4387  -0.6772  -0.2099  -0.0748   0.2485
     0.5392   0.8902   1.0042   1.2369   1.5703   1.7614   2.1990   2.3794

          k = 0.2500 0.4330 0.0000 (  4578 PWs)   bands (ev):

   -16.4250 -15.9167 -15.3642 -14.8137 -14.7729 -14.7447  -5.8957  -4.7237
    -3.6467  -2.8757  -2.7533  -2.0935  -0.5448  -0.3714  -0.2214   0.3222
     0.3839   0.7216   0.9961   1.1605   1.4467   1.8613   2.1907   2.4720

          k = 0.2500 0.4330 0.2262 (  4568 PWs)   bands (ev):

   -16.3853 -15.9276 -15.3934 -14.8106 -14.7921 -14.7422  -5.8051  -4.7029
    -3.8317  -2.8506  -2.5701  -2.2810  -0.6743  -0.3900  -0.1653   0.2954
     0.5448   0.7475   1.1136   1.2905   1.5285   1.8119   2.0673   2.3427

          k = 0.2500 0.4330-0.4525 (  4560 PWs)   bands (ev):

   -16.3384 -15.9475 -15.4202 -14.8279 -14.7664 -14.7648  -5.7010  -4.6978
    -3.9777  -2.6932  -2.6064  -2.4147  -0.7288  -0.5045  -0.0466   0.3208
     0.5716   0.7836   1.3463   1.4499   1.5585   1.7814   1.9532   2.1182

          k = 0.2500 0.4330-0.2262 (  4568 PWs)   bands (ev):

   -16.3853 -15.9276 -15.3934 -14.8106 -14.7921 -14.7422  -5.8051  -4.7029
    -3.8317  -2.8506  -2.5701  -2.2810  -0.6743  -0.3900  -0.1653   0.2954
     0.5448   0.7475   1.1137   1.2905   1.5285   1.8119   2.0673   2.3427

          k = 0.2500-0.4330 0.0000 (  4578 PWs)   bands (ev):

   -16.4250 -15.9167 -15.3642 -14.8137 -14.7729 -14.7447  -5.8957  -4.7237
    -3.6466  -2.8757  -2.7533  -2.0935  -0.5448  -0.3714  -0.2214   0.3222
     0.3839   0.7216   0.9961   1.1605   1.4467   1.8613   2.1907   2.4720

          k = 0.2500-0.4330 0.2262 (  4568 PWs)   bands (ev):

   -16.3853 -15.9276 -15.3934 -14.8106 -14.7921 -14.7421  -5.8051  -4.7029
    -3.8317  -2.8506  -2.5701  -2.2810  -0.6743  -0.3900  -0.1653   0.2954
     0.5448   0.7475   1.1137   1.2905   1.5285   1.8119   2.0673   2.3427

          k = 0.2500-0.4330-0.4525 (  4560 PWs)   bands (ev):

   -16.3384 -15.9475 -15.4202 -14.8279 -14.7664 -14.7648  -5.7010  -4.6978
    -3.9777  -2.6932  -2.6064  -2.4147  -0.7288  -0.5045  -0.0466   0.3208
     0.5716   0.7836   1.3463   1.4499   1.5585   1.7815   1.9532   2.1182

          k = 0.2500-0.4330-0.2262 (  4568 PWs)   bands (ev):

   -16.3853 -15.9277 -15.3934 -14.8106 -14.7921 -14.7421  -5.8051  -4.7029
    -3.8317  -2.8506  -2.5701  -2.2810  -0.6743  -0.3900  -0.1653   0.2955
     0.5448   0.7475   1.1136   1.2905   1.5285   1.8119   2.0673   2.3427

          k = 0.2500-0.1443 0.0000 (  4602 PWs)   bands (ev):

   -16.7262 -15.5920 -15.3675 -14.7934 -14.7485 -14.7253  -5.7975  -5.3450
    -3.0118  -2.9445  -2.8423  -2.4096  -0.6203  -0.3057  -0.1349   0.3232
     0.4943   0.9364   1.0046   1.4096   1.5028   1.6661   2.2595   2.3478

          k = 0.2500-0.1443 0.2262 (  4590 PWs)   bands (ev):

   -16.6227 -15.9214 -15.1317 -14.7830 -14.7715 -14.7193  -6.1775  -4.7547
    -3.4329  -2.9023  -2.6321  -2.4387  -0.6772  -0.2099  -0.0748   0.2486
     0.5392   0.8902   1.0042   1.2369   1.5703   1.7614   2.1990   2.3794

          k = 0.2500-0.1443-0.4525 (  4578 PWs)   bands (ev):

   -16.3970 -16.2559 -15.0244 -14.7983 -14.7502 -14.7203  -6.3726  -4.1662
    -3.8301  -2.8963  -2.7829  -2.2513  -0.5046  -0.4863   0.0266   0.2782
     0.4384   0.9271   1.0363   1.2064   1.4280   2.0475   2.0769   2.3500

          k = 0.2500-0.1443-0.2262 (  4590 PWs)   bands (ev):

   -16.6250 -15.9108 -15.1562 -14.7876 -14.7389 -14.7309  -6.1799  -4.7559
    -3.4346  -2.9216  -2.6556  -2.3702  -0.6355  -0.1553  -0.1354   0.1145
     0.4861   1.0020   1.0683   1.2173   1.6337   1.6777   2.1080   2.4660

          k =-0.5000-0.2887 0.0000 (  4552 PWs)   bands (ev):

   -16.4161 -15.9424 -15.3381 -14.8170 -14.7778 -14.7454  -5.8665  -4.8584
    -3.3670  -2.9037  -2.8917  -2.0890  -0.5732  -0.4025  -0.1695   0.2300
     0.4198   0.7554   0.8532   1.4005   1.4795   1.7278   2.2265   2.4596

          k =-0.5000-0.2887 0.2262 (  4576 PWs)   bands (ev):

   -16.3841 -15.9263 -15.4015 -14.8186 -14.7821 -14.7380  -5.7944  -4.8023
    -3.6708  -2.8853  -2.5942  -2.2719  -0.6384  -0.5587  -0.0038   0.1926
     0.5897   0.7470   1.0592   1.3409   1.5460   1.7858   2.0504   2.3824

          k =-0.5000-0.2887-0.4525 (  4564 PWs)   bands (ev):

   -16.3487 -15.9093 -15.4654 -14.8374 -14.7666 -14.7367  -5.7156  -4.7440
    -3.8737  -2.7872  -2.5232  -2.4168  -0.6901  -0.6751   0.0842   0.3909
     0.4350   0.9495   1.2334   1.3590   1.6206   1.6543   1.9016   2.3146

          k =-0.5000 0.0000 0.0000 (  4578 PWs)   bands (ev):

   -16.4250 -15.9167 -15.3642 -14.8137 -14.7729 -14.7447  -5.8957  -4.7237
    -3.6466  -2.8757  -2.7533  -2.0935  -0.5448  -0.3714  -0.2214   0.3222
     0.3839   0.7216   0.9961   1.1605   1.4467   1.8613   2.1907   2.4720

          k =-0.5000 0.0000 0.2262 (  4568 PWs)   bands (ev):

   -16.3853 -15.9277 -15.3934 -14.8106 -14.7921 -14.7421  -5.8051  -4.7029
    -3.8317  -2.8506  -2.5701  -2.2810  -0.6743  -0.3900  -0.1653   0.2955
     0.5448   0.7475   1.1136   1.2905   1.5285   1.8119   2.0673   2.3427

          k =-0.5000 0.0000-0.4525 (  4560 PWs)   bands (ev):

   -16.3384 -15.9475 -15.4202 -14.8279 -14.7664 -14.7648  -5.7010  -4.6978
    -3.9777  -2.6932  -2.6064  -2.4147  -0.7288  -0.5045  -0.0466   0.3208
     0.5716   0.7836   1.3463   1.4499   1.5585   1.7815   1.9532   2.1182

          k =-0.5000 0.0000-0.2262 (  4568 PWs)   bands (ev):

   -16.3853 -15.9276 -15.3934 -14.8106 -14.7921 -14.7421  -5.8051  -4.7029
    -3.8317  -2.8506  -2.5701  -2.2810  -0.6743  -0.3900  -0.1653   0.2954
     0.5448   0.7475   1.1137   1.2905   1.5285   1.8119   2.0673   2.3427

          k =-0.5000-0.8660 0.0000 (  4552 PWs)   bands (ev):

   -16.4161 -15.9424 -15.3381 -14.8170 -14.7778 -14.7454  -5.8665  -4.8584
    -3.3670  -2.9037  -2.8917  -2.0890  -0.5732  -0.4025  -0.1695   0.2300
     0.4198   0.7554   0.8532   1.4005   1.4795   1.7278   2.2266   2.4596

          k =-0.5000-0.8660 0.2262 (  4576 PWs)   bands (ev):

   -16.3841 -15.9263 -15.4015 -14.8186 -14.7821 -14.7380  -5.7944  -4.8023
    -3.6708  -2.8853  -2.5942  -2.2719  -0.6384  -0.5587  -0.0038   0.1926
     0.5898   0.7470   1.0592   1.3409   1.5460   1.7858   2.0504   2.3824

          k =-0.5000-0.8660-0.4525 (  4564 PWs)   bands (ev):

   -16.3486 -15.9094 -15.4654 -14.8374 -14.7666 -14.7367  -5.7155  -4.7440
    -3.8737  -2.7872  -2.5232  -2.4168  -0.6901  -0.6751   0.0842   0.3909
     0.4350   0.9495   1.2334   1.3590   1.6206   1.6544   1.9016   2.3146

     highest occupied level (ev):     2.4720

!    total energy              =    -391.14519941 Ry

     total all-electron energy =     -2644.264145 Ry
     estimated scf accuracy    <          4.7E-11 Ry

     The total energy is the sum of the following terms:
     one-electron contribution =    -101.56571293 Ry
     hartree contribution      =      77.51731739 Ry
     xc contribution           =     -64.45693932 Ry
     ewald contribution        =    -139.01384833 Ry
     one-center paw contrib.   =    -163.62601621 Ry

     convergence has been achieved in  13 iterations

     Forces acting on atoms (cartesian axes, Ry/au):

     atom    1 type  1   force =    -0.00034620   -0.00059901   -0.00000002
     atom    2 type  1   force =    -0.00034434    0.00059668   -0.00000270
     atom    3 type  1   force =     0.00068915    0.00000052    0.00000277
     atom    4 type  2   force =     0.00419644   -0.00906004   -0.00554986
     atom    5 type  2   force =     0.00574648    0.00816940   -0.00555135
     atom    6 type  2   force =    -0.00994607    0.00089403   -0.00555008
     atom    7 type  2   force =    -0.00994465   -0.00089546    0.00554964
     atom    8 type  2   force =     0.00574778   -0.00816694    0.00555100
     atom    9 type  2   force =     0.00420141    0.00906082    0.00555061

     Total force =     0.028011     Total SCF correction =     0.000010


     Computing stress (Cartesian axis) and pressure

          total   stress  (Ry/bohr**3)                   (kbar)     P=       57.55
   0.00039540  -0.00000000  -0.00000001           58.17       -0.00       -0.00
  -0.00000000   0.00039540   0.00000000           -0.00       58.17        0.00
  -0.00000001   0.00000000   0.00038275           -0.00        0.00       56.31


     Writing output data file ./out/O2Si.save/

     init_run     :      4.29s CPU      4.38s WALL (       1 calls)
     electrons    :     72.98s CPU     74.50s WALL (       1 calls)
     forces       :      2.20s CPU      2.22s WALL (       1 calls)
     stress       :      4.21s CPU      4.26s WALL (       1 calls)

     Called by init_run:
     wfcinit      :      1.83s CPU      1.86s WALL (       1 calls)
     potinit      :      1.11s CPU      1.13s WALL (       1 calls)
     hinit0       :      1.20s CPU      1.21s WALL (       1 calls)

     Called by electrons:
     c_bands      :     57.28s CPU     58.27s WALL (      13 calls)
     sum_band     :      6.97s CPU      7.32s WALL (      13 calls)
     v_of_rho     :      0.69s CPU      0.71s WALL (      14 calls)
     newd         :      1.33s CPU      1.52s WALL (      14 calls)
     PAW_pot      :      7.19s CPU      7.21s WALL (      14 calls)
     mix_rho      :      0.09s CPU      0.10s WALL (      13 calls)

     Called by c_bands:
     init_us_2    :      0.60s CPU      0.60s WALL (     522 calls)
     cegterg      :     54.42s CPU     55.40s WALL (     234 calls)

     Called by *egterg:
     cdiaghg      :      1.59s CPU      1.61s WALL (     800 calls)
     h_psi        :     31.23s CPU     32.15s WALL (     818 calls)
     s_psi        :      7.95s CPU      7.97s WALL (     818 calls)
     g_psi        :      0.12s CPU      0.12s WALL (     566 calls)

     Called by h_psi:
     h_psi:calbec :      7.99s CPU      8.04s WALL (     818 calls)
     vloc_psi     :     15.18s CPU     16.03s WALL (     818 calls)
     add_vuspsi   :      7.98s CPU      7.99s WALL (     818 calls)

     General routines
     calbec       :     11.63s CPU     11.71s WALL (    1142 calls)
     fft          :      0.46s CPU      0.49s WALL (     205 calls)
     ffts         :      0.02s CPU      0.02s WALL (      27 calls)
     fftw         :     15.23s CPU     16.09s WALL (   39802 calls)
     interpolate  :      0.05s CPU      0.05s WALL (      14 calls)

     Parallel routines
     fft_scatt_xy :      1.87s CPU      1.97s WALL (   40034 calls)
     fft_scatt_yz :      3.06s CPU      3.28s WALL (   40034 calls)

     PWSCF        :   1m24.10s CPU   1m25.86s WALL


   This run was terminated on:   4:28:24   1Jul2026            

=------------------------------------------------------------------------------=
   JOB DONE.
=------------------------------------------------------------------------------=
Note: The following floating-point exceptions are signalling: IEEE_UNDERFLOW_FLAG IEEE_DENORMAL
Note: The following floating-point exceptions are signalling: IEEE_UNDERFLOW_FLAG IEEE_DENORMAL
Note: The following floating-point exceptions are signalling: IEEE_UNDERFLOW_FLAG IEEE_DENORMAL
Note: The following floating-point exceptions are signalling: IEEE_UNDERFLOW_FLAG IEEE_DENORMAL
Note: The following floating-point exceptions are signalling: IEEE_UNDERFLOW_FLAG IEEE_DENORMAL
Note: The following floating-point exceptions are signalling: IEEE_UNDERFLOW_FLAG IEEE_DENORMAL
Note: The following floating-point exceptions are signalling: IEEE_UNDERFLOW_FLAG IEEE_DENORMAL
Note: The following floating-point exceptions are signalling: IEEE_UNDERFLOW_FLAG IEEE_DENORMAL
