
     Program PHONON v.6.7MaX starts on  2Jul2026 at 23:11:44 

     This program is part of the open-source Quantum ESPRESSO suite
     for quantum simulation of materials; please cite
         "P. Giannozzi et al., J. Phys.:Condens. Matter 21 395502 (2009);
         "P. Giannozzi et al., J. Phys.:Condens. Matter 29 465901 (2017);
          URL http://www.quantum-espresso.org", 
     in publications or presentations arising from this work. More details at
     http://www.quantum-espresso.org/quote

     Parallel version (MPI), running on     8 processors

     MPI processes distributed on     1 nodes
     R & G space division:  proc/nbgrp/npool/nimage =       8
     Waiting for input...
     Reading input from standard input
      Title line not specified: using 'default'.

     Reading xml data from directory:

     ./out/Ca3O8P2.save/
     file Ca.pbe-spn-kjpaw_psl.1.0.0.UPF: wavefunction(s)  3S renormalized
     file P.pbe-n-kjpaw_psl.1.0.0.UPF: wavefunction(s)  3S 3P renormalized
     file O.pbe-n-kjpaw_psl.0.1.UPF: wavefunction(s)  2P renormalized

     IMPORTANT: XC functional enforced from input :
     Exchange-correlation= PBE
                           (   1   4   3   4   0   0   0)
     Any further DFT definition will be discarded
     Please, verify this is what you really want


     Parallelization info
     --------------------
     sticks:   dense  smooth     PW     G-vecs:    dense   smooth      PW
     Min         474     237     68                16734     5908     928
     Max         475     238     69                16737     5910     929
     Sum        3799    1897    549               133887    47273    7427


     Check: negative core charge=   -0.000003
     Reading collected, re-writing distributed wavefunctions
        1 /   1 q-points for this run, from  1 to  1:
       N       xq(1)         xq(2)         xq(3) 
       1   0.000000000   0.000000000   0.000000000


     Calculation of q =    0.0000000   0.0000000   0.0000000
     Message from routine ph_restart_set_filename :
     cannot open file for reading or writing
 end of file reached, closing tag not found
warning: file closed at level 1 with tag Root open
     Message from routine ph_restart_set_filename :
     cannot open file for reading or writing
     Message from routine ph_restart_set_filename :
     cannot open file for reading or writing
     Message from routine ph_restart_set_filename :
     cannot open file for reading or writing
     Message from routine ph_restart_set_filename :
     cannot open file for reading or writing
     Message from routine ph_restart_set_filename :
     cannot open file for reading or writing
     Message from routine ph_restart_set_filename :
     cannot open file for reading or writing
     Message from routine ph_restart_set_filename :
     cannot open file for reading or writing
     Message from routine ph_restart_set_filename :
     cannot open file for reading or writing
     Message from routine ph_restart_set_filename :
     cannot open file for reading or writing
     Message from routine ph_restart_set_filename :
     cannot open file for reading or writing
     Message from routine ph_restart_set_filename :
     cannot open file for reading or writing
     Message from routine ph_restart_set_filename :
     cannot open file for reading or writing
     Message from routine ph_restart_set_filename :
     cannot open file for reading or writing
     Message from routine ph_restart_set_filename :
     cannot open file for reading or writing
     Message from routine ph_restart_set_filename :
     cannot open file for reading or writing
     Message from routine ph_restart_set_filename :
     cannot open file for reading or writing
     Message from routine ph_restart_set_filename :
     cannot open file for reading or writing
     Message from routine ph_restart_set_filename :
     cannot open file for reading or writing
     Message from routine ph_restart_set_filename :
     cannot open file for reading or writing
     Message from routine ph_restart_set_filename :
     cannot open file for reading or writing
     Message from routine ph_restart_set_filename :
     cannot open file for reading or writing
     Message from routine ph_restart_set_filename :
     cannot open file for reading or writing
     Message from routine ph_restart_set_filename :
     cannot open file for reading or writing
     Message from routine ph_restart_set_filename :
     cannot open file for reading or writing
     Message from routine ph_restart_set_filename :
     cannot open file for reading or writing
     Message from routine ph_restart_set_filename :
     cannot open file for reading or writing
     Message from routine ph_restart_set_filename :
     cannot open file for reading or writing
     Message from routine ph_restart_set_filename :
     cannot open file for reading or writing
     Message from routine ph_restart_set_filename :
     cannot open file for reading or writing
     Message from routine ph_restart_set_filename :
     cannot open file for reading or writing
     Message from routine ph_restart_set_filename :
     cannot open file for reading or writing
     Message from routine ph_restart_set_filename :
     cannot open file for reading or writing
     Message from routine ph_restart_set_filename :
     cannot open file for reading or writing
     Message from routine ph_restart_set_filename :
     cannot open file for reading or writing
     Message from routine ph_restart_set_filename :
     cannot open file for reading or writing
     Message from routine ph_restart_set_filename :
     cannot open file for reading or writing
     Message from routine ph_restart_set_filename :
     cannot open file for reading or writing
     Message from routine ph_restart_set_filename :
     cannot open file for reading or writing
     Message from routine ph_restart_set_filename :
     cannot open file for reading or writing

     Restart in Electric Field calculation

     default                                                                    

     bravais-lattice index     =            0
     lattice parameter (alat)  =      13.0318  a.u.
     unit-cell volume          =     990.2235 (a.u.)^3
     number of atoms/cell      =           13
     number of atomic types    =            3
     kinetic-energy cut-off    =      50.0000  Ry
     charge density cut-off    =     400.0000  Ry
     convergence threshold     =      1.0E-12
     beta                      =       0.7000
     number of iterations used =            4
     Exchange-correlation= PBE
                           (   1   4   3   4   0   0   0)


     celldm(1)=   13.03184  celldm(2)=    0.00000  celldm(3)=    0.00000
     celldm(4)=    0.00000  celldm(5)=    0.00000  celldm(6)=    0.00000

     crystal axes: (cart. coord. in units of alat)
               a(1) = (  0.7015  0.0001  0.7127 )  
               a(2) = (  0.2919  0.6379  0.7127 )  
               a(3) = (  0.0001  0.0001  1.0000 )  

     reciprocal axes: (cart. coord. in units 2 pi/alat)
               b(1) = (  1.4256 -0.6524 -0.0001 )  
               b(2) = ( -0.0000  1.5678 -0.0001 )  
               b(3) = ( -1.0159 -0.6524  1.0001 )  


     Atoms inside the unit cell: 

     Cartesian axes

     site n.  atom      mass           positions (alat units)
        1     Ca  40.0780   tau(    1) = (    0.00000    0.00000    0.00000  )
        2     Ca  40.0780   tau(    2) = (    0.20181    0.12959    0.49263  )
        3     Ca  40.0780   tau(    3) = (    0.79173    0.50840    1.93267  )
        4     P   30.9738   tau(    4) = (    0.40240    0.25840    0.98230  )
        5     P   30.9738   tau(    5) = (    0.59113    0.37959    1.44300  )
        6     O   15.9990   tau(    6) = (    0.72243    0.46390    1.28334  )
        7     O   15.9990   tau(    7) = (    0.58226    0.15757    1.42134  )
        8     O   15.9990   tau(    8) = (    0.38555    0.46390    1.42134  )
        9     O   15.9990   tau(    9) = (    0.60798    0.17409    1.00397  )
       10     O   15.9990   tau(   10) = (    0.27111    0.17409    1.14197  )
       11     O   15.9990   tau(   11) = (    0.32135    0.20635    0.78444  )
       12     O   15.9990   tau(   12) = (    0.67219    0.43164    1.64087  )
       13     O   15.9990   tau(   13) = (    0.41128    0.48042    1.00397  )

     Computing dynamical matrix for 
                    q = (   0.0000000   0.0000000   0.0000000 )

      2 Sym.Ops. (with q -> -q+G )


     G cutoff = 1720.7248  (  16737 G-vectors)     FFT grid: ( 90, 90, 90)
     G cutoff =  860.3624  (   5909 G-vectors)  smooth grid: ( 60, 60, 60)
     number of k points=    36
                       cart. coord. in units 2pi/alat
        k(    1) = (   0.0000000   0.0000000   0.0000000), wk =   0.0312500
        k(    2) = (  -0.2539856  -0.1630931   0.2500282), wk =   0.0625000
        k(    3) = (   0.5079711   0.3261861  -0.5000564), wk =   0.0312500
        k(    4) = (  -0.0000081   0.3919465  -0.0000198), wk =   0.0625000
        k(    5) = (  -0.2539937   0.2288535   0.2500084), wk =   0.0625000
        k(    6) = (   0.5079630   0.7181327  -0.5000762), wk =   0.0625000
        k(    7) = (   0.2539775   0.5550396  -0.2500480), wk =   0.0625000
        k(    8) = (   0.0000162  -0.7838931   0.0000396), wk =   0.0312500
        k(    9) = (  -0.2539693  -0.9469861   0.2500678), wk =   0.0625000
        k(   10) = (   0.5079874  -0.4577070  -0.5000168), wk =   0.0312500
        k(   11) = (   0.3564026  -0.1630931  -0.0000198), wk =   0.0625000
        k(   12) = (   0.1024170  -0.3261862   0.2500084), wk =   0.0625000
        k(   13) = (   0.8643737   0.1630930  -0.5000763), wk =   0.0625000
        k(   14) = (   0.6103882  -0.0000000  -0.2500480), wk =   0.0625000
        k(   15) = (   0.3563945   0.2288534  -0.0000396), wk =   0.0625000
        k(   16) = (   0.1024089   0.0657604   0.2499886), wk =   0.0625000
        k(   17) = (   0.8643656   0.5550396  -0.5000961), wk =   0.0625000
        k(   18) = (   0.6103801   0.3919465  -0.2500679), wk =   0.0625000
        k(   19) = (   0.3564188  -0.9469862   0.0000198), wk =   0.0625000
        k(   20) = (   0.1024333  -1.1100793   0.2500480), wk =   0.0625000
        k(   21) = (   0.8643900  -0.6208001  -0.5000366), wk =   0.0625000
        k(   22) = (   0.6104044  -0.7838931  -0.2500084), wk =   0.0625000
        k(   23) = (   0.3564107  -0.5550396  -0.0000000), wk =   0.0625000
        k(   24) = (   0.1024252  -0.7181327   0.2500282), wk =   0.0625000
        k(   25) = (   0.8643819  -0.2288535  -0.5000565), wk =   0.0625000
        k(   26) = (   0.6103963  -0.3919466  -0.2500282), wk =   0.0625000
        k(   27) = (  -0.7128052   0.3261862   0.0000397), wk =   0.0312500
        k(   28) = (  -0.9667908   0.1630932   0.2500679), wk =   0.0625000
        k(   29) = (  -0.2048341   0.6523723  -0.5000167), wk =   0.0312500
        k(   30) = (  -0.7128133   0.7181328   0.0000199), wk =   0.0625000
        k(   31) = (  -0.9667989   0.5550397   0.2500481), wk =   0.0625000
        k(   32) = (  -0.2048422   1.0443189  -0.5000365), wk =   0.0625000
        k(   33) = (  -0.4588278   0.8812258  -0.2500083), wk =   0.0625000
        k(   34) = (  -0.7127890  -0.4577069   0.0000793), wk =   0.0312500
        k(   35) = (  -0.9667746  -0.6207999   0.2501075), wk =   0.0625000
        k(   36) = (  -0.2048179  -0.1315207  -0.4999771), wk =   0.0312500

     PseudoPot. # 1 for Ca read from file:
     /data/pseudopotentials/Ca.pbe-spn-kjpaw_psl.1.0.0.UPF
     MD5 check sum: 1e11ab70c77b02a7d7d676f41d47b751
     Pseudo is Projector augmented-wave + core cor, Zval = 10.0
     Generated using &quot;atomic&quot; code by A. Dal Corso  v.6.4.1
     Shape of augmentation charge: PSQ
     Using radial grid of 1169 points,  6 beta functions with: 
                l(1) =   0
                l(2) =   0
                l(3) =   1
                l(4) =   1
                l(5) =   2
                l(6) =   2
     Q(r) pseudized with 0 coefficients 


     PseudoPot. # 2 for P  read from file:
     /data/pseudopotentials/P.pbe-n-kjpaw_psl.1.0.0.UPF
     MD5 check sum: 06b8cad1975795032ee26009bb7624c7
     Pseudo is Projector augmented-wave + core cor, Zval =  5.0
     Generated using &quot;atomic&quot; code by A. Dal Corso  v.6.3
     Shape of augmentation charge: PSQ
     Using radial grid of 1147 points,  6 beta functions with: 
                l(1) =   0
                l(2) =   0
                l(3) =   1
                l(4) =   1
                l(5) =   2
                l(6) =   2
     Q(r) pseudized with 0 coefficients 


     PseudoPot. # 3 for O  read from file:
     /data/pseudopotentials/O.pbe-n-kjpaw_psl.0.1.UPF
     MD5 check sum: 833c495a5d0f9b75bf046115549bffff
     Pseudo is Projector augmented-wave + core cor, Zval =  6.0
     Generated using &quot;atomic&quot; code by A. Dal Corso  v.6.3
     Shape of augmentation charge: BESSEL
     Using radial grid of 1095 points,  4 beta functions with: 
                l(1) =   0
                l(2) =   0
                l(3) =   1
                l(4) =   1
     Q(r) pseudized with 0 coefficients 


     Mode symmetry, C_1 (1)     point group:


     Electric field:
     Dielectric constant
     Born effective charges as d Force / d E


     Atomic displacements:
     There are   39 irreducible representations

     Representation     1      1 modes -  To be done

     Representation     2      1 modes -  To be done

     Representation     3      1 modes -  To be done

     Representation     4      1 modes -  To be done

     Representation     5      1 modes -  To be done

     Representation     6      1 modes -  To be done

     Representation     7      1 modes -  To be done

     Representation     8      1 modes -  To be done

     Representation     9      1 modes -  To be done

     Representation    10      1 modes -  To be done

     Representation    11      1 modes -  To be done

     Representation    12      1 modes -  To be done

     Representation    13      1 modes -  To be done

     Representation    14      1 modes -  To be done

     Representation    15      1 modes -  To be done

     Representation    16      1 modes -  To be done

     Representation    17      1 modes -  To be done

     Representation    18      1 modes -  To be done

     Representation    19      1 modes -  To be done

     Representation    20      1 modes -  To be done

     Representation    21      1 modes -  To be done

     Representation    22      1 modes -  To be done

     Representation    23      1 modes -  To be done

     Representation    24      1 modes -  To be done

     Representation    25      1 modes -  To be done

     Representation    26      1 modes -  To be done

     Representation    27      1 modes -  To be done

     Representation    28      1 modes -  To be done

     Representation    29      1 modes -  To be done

     Representation    30      1 modes -  To be done

     Representation    31      1 modes -  To be done

     Representation    32      1 modes -  To be done

     Representation    33      1 modes -  To be done

     Representation    34      1 modes -  To be done

     Representation    35      1 modes -  To be done

     Representation    36      1 modes -  To be done

     Representation    37      1 modes -  To be done

     Representation    38      1 modes -  To be done

     Representation    39      1 modes -  To be done


     PHONON       :   1m50.65s CPU   1m54.04s WALL


     Electric Fields Calculation

      iter #   5 total cpu time :   339.4 secs   av.it.:   9.8
      thresh= 4.772E-07 alpha_mix =  0.700 |ddv_scf|^2 =  3.044E-11

      iter #   6 total cpu time :   759.3 secs   av.it.:  19.9
      thresh= 5.517E-07 alpha_mix =  0.700 |ddv_scf|^2 =  3.126E-12

      iter #   7 total cpu time :  1218.5 secs   av.it.:  22.4
      thresh= 1.768E-07 alpha_mix =  0.700 |ddv_scf|^2 =  1.762E-13

     End of electric fields calculation

          Dielectric constant in cartesian axis 

          (       3.202466195       0.007065067       0.026854239 )
          (       0.007065072       3.196011639       0.017252480 )
          (       0.026854271       0.017252520       3.257055557 )

          Effective charges (d Force / dE) in cartesian axis

           atom      1   Ca 
      Ex  (        2.61212       -0.01429       -0.05432 )
      Ey  (       -0.01429        2.62520       -0.03488 )
      Ez  (       -0.05432       -0.03488        2.50178 )
           atom      2   Ca 
      Ex  (        2.60406        0.03505        0.13325 )
      Ey  (        0.03505        2.57199        0.08557 )
      Ez  (        0.13326        0.08557        2.87478 )
           atom      3   Ca 
      Ex  (        2.60406        0.03505        0.13325 )
      Ey  (        0.03505        2.57199        0.08557 )
      Ez  (        0.13326        0.08557        2.87479 )
           atom      4   P  
      Ex  (        3.36265        0.01473        0.05595 )
      Ey  (        0.01472        3.34918        0.03593 )
      Ez  (        0.05596        0.03594        3.47634 )
           atom      5   P  
      Ex  (        3.36266        0.01471        0.05595 )
      Ey  (        0.01472        3.34919        0.03594 )
      Ez  (        0.05596        0.03594        3.47634 )
           atom      6   O  
      Ex  (       -1.85081       -0.22683        0.41632 )
      Ey  (       -0.22682       -1.64323        0.26733 )
      Ez  (        0.45240        0.29050       -2.06479 )
           atom      7   O  
      Ex  (       -1.50220       -0.05725       -0.01130 )
      Ey  (       -0.04099       -2.53146       -0.10008 )
      Ez  (       -0.01130       -0.13976       -1.52517 )
           atom      8   O  
      Ex  (       -2.39043        0.36545       -0.09570 )
      Ey  (        0.34919       -1.64323        0.03136 )
      Ez  (       -0.13179        0.04788       -1.52516 )
           atom      9   O  
      Ex  (       -2.39043        0.36545       -0.09570 )
      Ey  (        0.34919       -1.64322        0.03136 )
      Ez  (       -0.13179        0.04788       -1.52516 )
           atom     10   O  
      Ex  (       -1.85081       -0.22683        0.41631 )
      Ey  (       -0.22683       -1.64323        0.26733 )
      Ez  (        0.45240        0.29050       -2.06479 )
           atom     11   O  
      Ex  (       -1.52742       -0.12363       -0.46997 )
      Ey  (       -0.12363       -1.41429       -0.30179 )
      Ez  (       -0.46998       -0.30179       -2.48217 )
           atom     12   O  
      Ex  (       -1.52742       -0.12363       -0.46997 )
      Ey  (       -0.12363       -1.41429       -0.30179 )
      Ez  (       -0.46998       -0.30179       -2.48217 )
           atom     13   O  
      Ex  (       -1.50220       -0.05726       -0.01130 )
      Ey  (       -0.04100       -2.53145       -0.10008 )
      Ez  (       -0.01130       -0.13976       -1.52517 )


     Representation #   1 mode #   1

     Self-consistent Calculation

      iter #   1 total cpu time :  2619.7 secs   av.it.:   8.9
      thresh= 1.000E-02 alpha_mix =  0.700 |ddv_scf|^2 =  4.633E-07

      iter #   2 total cpu time :  2753.8 secs   av.it.:  19.8
      thresh= 6.807E-05 alpha_mix =  0.700 |ddv_scf|^2 =  1.526E-07

      iter #   3 total cpu time :  2888.0 secs   av.it.:  19.8
      thresh= 3.906E-05 alpha_mix =  0.700 |ddv_scf|^2 =  1.351E-08

      iter #   4 total cpu time :  3022.9 secs   av.it.:  19.8
      thresh= 1.162E-05 alpha_mix =  0.700 |ddv_scf|^2 =  1.544E-10

      iter #   5 total cpu time :  3161.4 secs   av.it.:  20.5
      thresh= 1.242E-06 alpha_mix =  0.700 |ddv_scf|^2 =  3.291E-11

      iter #   6 total cpu time :  3298.2 secs   av.it.:  19.9
      thresh= 5.736E-07 alpha_mix =  0.700 |ddv_scf|^2 =  5.026E-12

      iter #   7 total cpu time :  3439.2 secs   av.it.:  20.7
      thresh= 2.242E-07 alpha_mix =  0.700 |ddv_scf|^2 =  1.385E-12

      iter #   8 total cpu time :  3577.4 secs   av.it.:  20.0
      thresh= 1.177E-07 alpha_mix =  0.700 |ddv_scf|^2 =  8.622E-14

     End of self-consistent calculation

     Convergence has been achieved 


     Representation #   2 mode #   2

     Self-consistent Calculation

      iter #   1 total cpu time :  3654.3 secs   av.it.:   8.9
      thresh= 1.000E-02 alpha_mix =  0.700 |ddv_scf|^2 =  4.343E-07

      iter #   2 total cpu time :  3787.9 secs   av.it.:  19.5
      thresh= 6.590E-05 alpha_mix =  0.700 |ddv_scf|^2 =  1.222E-07

      iter #   3 total cpu time :  3923.1 secs   av.it.:  19.6
      thresh= 3.495E-05 alpha_mix =  0.700 |ddv_scf|^2 =  1.099E-08

      iter #   4 total cpu time :  4058.4 secs   av.it.:  19.7
      thresh= 1.048E-05 alpha_mix =  0.700 |ddv_scf|^2 =  1.071E-10

      iter #   5 total cpu time :  4196.9 secs   av.it.:  20.2
      thresh= 1.035E-06 alpha_mix =  0.700 |ddv_scf|^2 =  2.053E-11

      iter #   6 total cpu time :  4335.1 secs   av.it.:  20.2
      thresh= 4.531E-07 alpha_mix =  0.700 |ddv_scf|^2 =  5.162E-12

      iter #   7 total cpu time :  4472.8 secs   av.it.:  20.1
      thresh= 2.272E-07 alpha_mix =  0.700 |ddv_scf|^2 =  1.169E-12

      iter #   8 total cpu time :  4599.4 secs   av.it.:  19.7
      thresh= 1.081E-07 alpha_mix =  0.700 |ddv_scf|^2 =  7.127E-14

     End of self-consistent calculation

     Convergence has been achieved 


     Representation #   3 mode #   3

     Self-consistent Calculation

      iter #   1 total cpu time :  4671.1 secs   av.it.:   9.4
      thresh= 1.000E-02 alpha_mix =  0.700 |ddv_scf|^2 =  7.072E-07

      iter #   2 total cpu time :  4794.6 secs   av.it.:  19.6
      thresh= 8.410E-05 alpha_mix =  0.700 |ddv_scf|^2 =  4.076E-07

      iter #   3 total cpu time :  4915.7 secs   av.it.:  19.2
      thresh= 6.385E-05 alpha_mix =  0.700 |ddv_scf|^2 =  1.953E-08

      iter #   4 total cpu time :  5040.0 secs   av.it.:  19.7
      thresh= 1.398E-05 alpha_mix =  0.700 |ddv_scf|^2 =  4.487E-10

      iter #   5 total cpu time :  5165.7 secs   av.it.:  19.8
      thresh= 2.118E-06 alpha_mix =  0.700 |ddv_scf|^2 =  4.732E-11

      iter #   6 total cpu time :  5292.3 secs   av.it.:  20.1
      thresh= 6.879E-07 alpha_mix =  0.700 |ddv_scf|^2 =  4.038E-12

      iter #   7 total cpu time :  5422.5 secs   av.it.:  20.7
      thresh= 2.010E-07 alpha_mix =  0.700 |ddv_scf|^2 =  1.129E-12

      iter #   8 total cpu time :  5549.7 secs   av.it.:  20.3
      thresh= 1.063E-07 alpha_mix =  0.700 |ddv_scf|^2 =  8.263E-14

     End of self-consistent calculation

     Convergence has been achieved 


     Representation #   4 mode #   4

     Self-consistent Calculation

      iter #   1 total cpu time :  5623.9 secs   av.it.:  10.0
      thresh= 1.000E-02 alpha_mix =  0.700 |ddv_scf|^2 =  5.103E-07

      iter #   2 total cpu time :  5752.3 secs   av.it.:  20.4
      thresh= 7.144E-05 alpha_mix =  0.700 |ddv_scf|^2 =  2.122E-07

      iter #   3 total cpu time :  5879.0 secs   av.it.:  20.0
      thresh= 4.606E-05 alpha_mix =  0.700 |ddv_scf|^2 =  1.653E-08

      iter #   4 total cpu time :  6005.4 secs   av.it.:  20.0
      thresh= 1.286E-05 alpha_mix =  0.700 |ddv_scf|^2 =  2.886E-10

      iter #   5 total cpu time :  6135.4 secs   av.it.:  20.8
      thresh= 1.699E-06 alpha_mix =  0.700 |ddv_scf|^2 =  2.142E-11

      iter #   6 total cpu time :  6267.1 secs   av.it.:  21.3
      thresh= 4.628E-07 alpha_mix =  0.700 |ddv_scf|^2 =  7.834E-12

      iter #   7 total cpu time :  6396.6 secs   av.it.:  20.8
      thresh= 2.799E-07 alpha_mix =  0.700 |ddv_scf|^2 =  1.536E-12

      iter #   8 total cpu time :  6525.1 secs   av.it.:  20.7
      thresh= 1.239E-07 alpha_mix =  0.700 |ddv_scf|^2 =  9.374E-14

     End of self-consistent calculation

     Convergence has been achieved 


     Representation #   5 mode #   5

     Self-consistent Calculation

      iter #   1 total cpu time :  6598.5 secs   av.it.:   9.9
      thresh= 1.000E-02 alpha_mix =  0.700 |ddv_scf|^2 =  4.754E-07

      iter #   2 total cpu time :  6725.5 secs   av.it.:  20.1
      thresh= 6.895E-05 alpha_mix =  0.700 |ddv_scf|^2 =  1.606E-07

      iter #   3 total cpu time :  6850.7 secs   av.it.:  20.0
      thresh= 4.007E-05 alpha_mix =  0.700 |ddv_scf|^2 =  1.062E-08

      iter #   4 total cpu time :  6977.1 secs   av.it.:  20.0
      thresh= 1.030E-05 alpha_mix =  0.700 |ddv_scf|^2 =  2.694E-10

      iter #   5 total cpu time :  7104.3 secs   av.it.:  20.4
      thresh= 1.641E-06 alpha_mix =  0.700 |ddv_scf|^2 =  1.630E-11

      iter #   6 total cpu time :  7236.1 secs   av.it.:  21.2
      thresh= 4.038E-07 alpha_mix =  0.700 |ddv_scf|^2 =  8.316E-12

      iter #   7 total cpu time :  7363.6 secs   av.it.:  20.5
      thresh= 2.884E-07 alpha_mix =  0.700 |ddv_scf|^2 =  1.394E-12

      iter #   8 total cpu time :  7490.8 secs   av.it.:  20.4
      thresh= 1.180E-07 alpha_mix =  0.700 |ddv_scf|^2 =  6.858E-14

     End of self-consistent calculation

     Convergence has been achieved 


     Representation #   6 mode #   6

     Self-consistent Calculation

      iter #   1 total cpu time :  7564.9 secs   av.it.:  10.0
      thresh= 1.000E-02 alpha_mix =  0.700 |ddv_scf|^2 =  8.038E-07

      iter #   2 total cpu time :  7691.2 secs   av.it.:  20.2
      thresh= 8.965E-05 alpha_mix =  0.700 |ddv_scf|^2 =  6.434E-07

      iter #   3 total cpu time :  7813.2 secs   av.it.:  19.6
      thresh= 8.022E-05 alpha_mix =  0.700 |ddv_scf|^2 =  2.468E-08

      iter #   4 total cpu time :  7939.0 secs   av.it.:  20.1
      thresh= 1.571E-05 alpha_mix =  0.700 |ddv_scf|^2 =  6.798E-10

      iter #   5 total cpu time :  8065.8 secs   av.it.:  20.3
      thresh= 2.607E-06 alpha_mix =  0.700 |ddv_scf|^2 =  2.406E-11

      iter #   6 total cpu time :  8196.1 secs   av.it.:  20.9
      thresh= 4.905E-07 alpha_mix =  0.700 |ddv_scf|^2 =  6.657E-12

      iter #   7 total cpu time :  8324.9 secs   av.it.:  20.9
      thresh= 2.580E-07 alpha_mix =  0.700 |ddv_scf|^2 =  1.747E-12

      iter #   8 total cpu time :  8451.4 secs   av.it.:  20.2
      thresh= 1.322E-07 alpha_mix =  0.700 |ddv_scf|^2 =  1.221E-13

     End of self-consistent calculation

     Convergence has been achieved 


     Representation #   7 mode #   7

     Self-consistent Calculation

      iter #   1 total cpu time :  8524.8 secs   av.it.:  10.0
      thresh= 1.000E-02 alpha_mix =  0.700 |ddv_scf|^2 =  5.103E-07

      iter #   2 total cpu time :  8651.8 secs   av.it.:  20.4
      thresh= 7.144E-05 alpha_mix =  0.700 |ddv_scf|^2 =  2.122E-07

      iter #   3 total cpu time :  8778.0 secs   av.it.:  20.0
      thresh= 4.606E-05 alpha_mix =  0.700 |ddv_scf|^2 =  1.653E-08

      iter #   4 total cpu time :  8903.5 secs   av.it.:  20.0
      thresh= 1.286E-05 alpha_mix =  0.700 |ddv_scf|^2 =  2.886E-10

      iter #   5 total cpu time :  9032.0 secs   av.it.:  20.8
      thresh= 1.699E-06 alpha_mix =  0.700 |ddv_scf|^2 =  2.142E-11

      iter #   6 total cpu time :  9163.2 secs   av.it.:  21.3
      thresh= 4.628E-07 alpha_mix =  0.700 |ddv_scf|^2 =  7.834E-12

      iter #   7 total cpu time :  9292.3 secs   av.it.:  20.8
      thresh= 2.799E-07 alpha_mix =  0.700 |ddv_scf|^2 =  1.536E-12

      iter #   8 total cpu time :  9421.9 secs   av.it.:  20.7
      thresh= 1.239E-07 alpha_mix =  0.700 |ddv_scf|^2 =  9.374E-14

     End of self-consistent calculation

     Convergence has been achieved 


     Representation #   8 mode #   8

     Self-consistent Calculation

      iter #   1 total cpu time :  9495.3 secs   av.it.:   9.9
      thresh= 1.000E-02 alpha_mix =  0.700 |ddv_scf|^2 =  4.754E-07

      iter #   2 total cpu time :  9621.9 secs   av.it.:  20.1
      thresh= 6.895E-05 alpha_mix =  0.700 |ddv_scf|^2 =  1.606E-07

      iter #   3 total cpu time :  9747.2 secs   av.it.:  20.0
      thresh= 4.007E-05 alpha_mix =  0.700 |ddv_scf|^2 =  1.062E-08

      iter #   4 total cpu time :  9872.2 secs   av.it.:  20.0
      thresh= 1.030E-05 alpha_mix =  0.700 |ddv_scf|^2 =  2.694E-10

      iter #   5 total cpu time :  9999.4 secs   av.it.:  20.4
      thresh= 1.641E-06 alpha_mix =  0.700 |ddv_scf|^2 =  1.630E-11

      iter #   6 total cpu time : 10130.8 secs   av.it.:  21.2
      thresh= 4.038E-07 alpha_mix =  0.700 |ddv_scf|^2 =  8.316E-12

      iter #   7 total cpu time : 10258.2 secs   av.it.:  20.5
      thresh= 2.884E-07 alpha_mix =  0.700 |ddv_scf|^2 =  1.394E-12

      iter #   8 total cpu time : 10385.1 secs   av.it.:  20.4
      thresh= 1.180E-07 alpha_mix =  0.700 |ddv_scf|^2 =  6.858E-14

     End of self-consistent calculation

     Convergence has been achieved 


     Representation #   9 mode #   9

     Self-consistent Calculation

      iter #   1 total cpu time : 10459.5 secs   av.it.:  10.0
      thresh= 1.000E-02 alpha_mix =  0.700 |ddv_scf|^2 =  8.038E-07

      iter #   2 total cpu time : 10585.7 secs   av.it.:  20.2
      thresh= 8.965E-05 alpha_mix =  0.700 |ddv_scf|^2 =  6.434E-07

      iter #   3 total cpu time : 10708.3 secs   av.it.:  19.6
      thresh= 8.022E-05 alpha_mix =  0.700 |ddv_scf|^2 =  2.468E-08

      iter #   4 total cpu time : 10833.8 secs   av.it.:  20.1
      thresh= 1.571E-05 alpha_mix =  0.700 |ddv_scf|^2 =  6.798E-10

      iter #   5 total cpu time : 10960.8 secs   av.it.:  20.3
      thresh= 2.607E-06 alpha_mix =  0.700 |ddv_scf|^2 =  2.406E-11

      iter #   6 total cpu time : 11090.4 secs   av.it.:  20.9
      thresh= 4.905E-07 alpha_mix =  0.700 |ddv_scf|^2 =  6.657E-12

      iter #   7 total cpu time : 11218.8 secs   av.it.:  20.8
      thresh= 2.580E-07 alpha_mix =  0.700 |ddv_scf|^2 =  1.747E-12

      iter #   8 total cpu time : 11345.1 secs   av.it.:  20.2
      thresh= 1.322E-07 alpha_mix =  0.700 |ddv_scf|^2 =  1.221E-13

     End of self-consistent calculation

     Convergence has been achieved 


     Representation #  10 mode #  10

     Self-consistent Calculation

      iter #   1 total cpu time : 11409.1 secs   av.it.:   8.0
      thresh= 1.000E-02 alpha_mix =  0.700 |ddv_scf|^2 =  5.627E-08

      iter #   2 total cpu time : 11541.1 secs   av.it.:  21.1
      thresh= 2.372E-05 alpha_mix =  0.700 |ddv_scf|^2 =  5.662E-08

      iter #   3 total cpu time : 11666.4 secs   av.it.:  20.1
      thresh= 2.379E-05 alpha_mix =  0.700 |ddv_scf|^2 =  2.566E-09

      iter #   4 total cpu time : 11790.9 secs   av.it.:  20.0
      thresh= 5.065E-06 alpha_mix =  0.700 |ddv_scf|^2 =  4.465E-11

      iter #   5 total cpu time : 11921.1 secs   av.it.:  21.0
      thresh= 6.682E-07 alpha_mix =  0.700 |ddv_scf|^2 =  2.480E-11

      iter #   6 total cpu time : 12045.9 secs   av.it.:  20.0
      thresh= 4.979E-07 alpha_mix =  0.700 |ddv_scf|^2 =  2.045E-12

      iter #   7 total cpu time : 12169.6 secs   av.it.:  20.0
      thresh= 1.430E-07 alpha_mix =  0.700 |ddv_scf|^2 =  1.114E-13

     End of self-consistent calculation

     Convergence has been achieved 


     Representation #  11 mode #  11

     Self-consistent Calculation

      iter #   1 total cpu time : 12233.3 secs   av.it.:   8.0
      thresh= 1.000E-02 alpha_mix =  0.700 |ddv_scf|^2 =  5.045E-08

      iter #   2 total cpu time : 12364.5 secs   av.it.:  21.1
      thresh= 2.246E-05 alpha_mix =  0.700 |ddv_scf|^2 =  4.740E-08

      iter #   3 total cpu time : 12490.5 secs   av.it.:  20.1
      thresh= 2.177E-05 alpha_mix =  0.700 |ddv_scf|^2 =  2.522E-09

      iter #   4 total cpu time : 12614.4 secs   av.it.:  20.0
      thresh= 5.022E-06 alpha_mix =  0.700 |ddv_scf|^2 =  3.919E-11

      iter #   5 total cpu time : 12743.6 secs   av.it.:  20.9
      thresh= 6.260E-07 alpha_mix =  0.700 |ddv_scf|^2 =  1.695E-11

      iter #   6 total cpu time : 12868.7 secs   av.it.:  20.1
      thresh= 4.117E-07 alpha_mix =  0.700 |ddv_scf|^2 =  2.433E-12

      iter #   7 total cpu time : 12991.3 secs   av.it.:  19.7
      thresh= 1.560E-07 alpha_mix =  0.700 |ddv_scf|^2 =  8.188E-14

     End of self-consistent calculation

     Convergence has been achieved 


     Representation #  12 mode #  12

     Self-consistent Calculation

      iter #   1 total cpu time : 13055.7 secs   av.it.:   8.0
      thresh= 1.000E-02 alpha_mix =  0.700 |ddv_scf|^2 =  1.058E-07

      iter #   2 total cpu time : 13186.0 secs   av.it.:  20.7
      thresh= 3.252E-05 alpha_mix =  0.700 |ddv_scf|^2 =  1.347E-07

      iter #   3 total cpu time : 13318.6 secs   av.it.:  19.3
      thresh= 3.670E-05 alpha_mix =  0.700 |ddv_scf|^2 =  3.156E-09

      iter #   4 total cpu time : 13453.1 secs   av.it.:  19.8
      thresh= 5.617E-06 alpha_mix =  0.700 |ddv_scf|^2 =  4.284E-11

      iter #   5 total cpu time : 13594.0 secs   av.it.:  20.9
      thresh= 6.545E-07 alpha_mix =  0.700 |ddv_scf|^2 =  1.214E-11

      iter #   6 total cpu time : 13735.1 secs   av.it.:  20.8
      thresh= 3.484E-07 alpha_mix =  0.700 |ddv_scf|^2 =  3.560E-12

      iter #   7 total cpu time : 13875.1 secs   av.it.:  20.2
      thresh= 1.887E-07 alpha_mix =  0.700 |ddv_scf|^2 =  1.639E-13

     End of self-consistent calculation

     Convergence has been achieved 


     Representation #  13 mode #  13

     Self-consistent Calculation

      iter #   1 total cpu time : 13943.2 secs   av.it.:   8.0
      thresh= 1.000E-02 alpha_mix =  0.700 |ddv_scf|^2 =  5.627E-08

      iter #   2 total cpu time : 14074.0 secs   av.it.:  21.1
      thresh= 2.372E-05 alpha_mix =  0.700 |ddv_scf|^2 =  5.662E-08

      iter #   3 total cpu time : 14198.9 secs   av.it.:  20.1
      thresh= 2.379E-05 alpha_mix =  0.700 |ddv_scf|^2 =  2.566E-09

      iter #   4 total cpu time : 14322.8 secs   av.it.:  20.0
      thresh= 5.065E-06 alpha_mix =  0.700 |ddv_scf|^2 =  4.465E-11

      iter #   5 total cpu time : 14452.6 secs   av.it.:  21.0
      thresh= 6.682E-07 alpha_mix =  0.700 |ddv_scf|^2 =  2.480E-11

      iter #   6 total cpu time : 14576.7 secs   av.it.:  20.0
      thresh= 4.980E-07 alpha_mix =  0.700 |ddv_scf|^2 =  2.045E-12

      iter #   7 total cpu time : 14699.8 secs   av.it.:  20.0
      thresh= 1.430E-07 alpha_mix =  0.700 |ddv_scf|^2 =  1.114E-13

     End of self-consistent calculation

     Convergence has been achieved 


     Representation #  14 mode #  14

     Self-consistent Calculation

      iter #   1 total cpu time : 14762.9 secs   av.it.:   8.0
      thresh= 1.000E-02 alpha_mix =  0.700 |ddv_scf|^2 =  5.045E-08

      iter #   2 total cpu time : 14893.2 secs   av.it.:  21.1
      thresh= 2.246E-05 alpha_mix =  0.700 |ddv_scf|^2 =  4.740E-08

      iter #   3 total cpu time : 15018.2 secs   av.it.:  20.1
      thresh= 2.177E-05 alpha_mix =  0.700 |ddv_scf|^2 =  2.522E-09

      iter #   4 total cpu time : 15141.5 secs   av.it.:  20.0
      thresh= 5.022E-06 alpha_mix =  0.700 |ddv_scf|^2 =  3.918E-11

      iter #   5 total cpu time : 15269.7 secs   av.it.:  20.9
      thresh= 6.260E-07 alpha_mix =  0.700 |ddv_scf|^2 =  1.695E-11

      iter #   6 total cpu time : 15394.1 secs   av.it.:  20.1
      thresh= 4.117E-07 alpha_mix =  0.700 |ddv_scf|^2 =  2.433E-12

      iter #   7 total cpu time : 15515.8 secs   av.it.:  19.7
      thresh= 1.560E-07 alpha_mix =  0.700 |ddv_scf|^2 =  8.188E-14

     End of self-consistent calculation

     Convergence has been achieved 


     Representation #  15 mode #  15

     Self-consistent Calculation

      iter #   1 total cpu time : 15579.0 secs   av.it.:   8.0
      thresh= 1.000E-02 alpha_mix =  0.700 |ddv_scf|^2 =  1.058E-07

      iter #   2 total cpu time : 15706.9 secs   av.it.:  20.7
      thresh= 3.252E-05 alpha_mix =  0.700 |ddv_scf|^2 =  1.347E-07

      iter #   3 total cpu time : 15827.1 secs   av.it.:  19.3
      thresh= 3.670E-05 alpha_mix =  0.700 |ddv_scf|^2 =  3.156E-09

      iter #   4 total cpu time : 15949.5 secs   av.it.:  19.8
      thresh= 5.617E-06 alpha_mix =  0.700 |ddv_scf|^2 =  4.284E-11

      iter #   5 total cpu time : 16077.8 secs   av.it.:  20.9
      thresh= 6.545E-07 alpha_mix =  0.700 |ddv_scf|^2 =  1.214E-11

      iter #   6 total cpu time : 16206.0 secs   av.it.:  20.8
      thresh= 3.484E-07 alpha_mix =  0.700 |ddv_scf|^2 =  3.560E-12

      iter #   7 total cpu time : 16331.6 secs   av.it.:  20.2
      thresh= 1.887E-07 alpha_mix =  0.700 |ddv_scf|^2 =  1.639E-13

     End of self-consistent calculation

     Convergence has been achieved 


     Representation #  16 mode #  16

     Self-consistent Calculation

      iter #   1 total cpu time : 16404.4 secs   av.it.:   9.9
      thresh= 1.000E-02 alpha_mix =  0.700 |ddv_scf|^2 =  2.894E-07

      iter #   2 total cpu time : 16531.7 secs   av.it.:  20.5
      thresh= 5.379E-05 alpha_mix =  0.700 |ddv_scf|^2 =  8.545E-08

      iter #   3 total cpu time : 16656.4 secs   av.it.:  20.0
      thresh= 2.923E-05 alpha_mix =  0.700 |ddv_scf|^2 =  2.963E-09

      iter #   4 total cpu time : 16785.5 secs   av.it.:  21.0
      thresh= 5.444E-06 alpha_mix =  0.700 |ddv_scf|^2 =  9.755E-10

      iter #   5 total cpu time : 16908.9 secs   av.it.:  19.9
      thresh= 3.123E-06 alpha_mix =  0.700 |ddv_scf|^2 =  1.697E-11

      iter #   6 total cpu time : 17035.7 secs   av.it.:  20.7
      thresh= 4.120E-07 alpha_mix =  0.700 |ddv_scf|^2 =  2.388E-12

      iter #   7 total cpu time : 17162.8 secs   av.it.:  20.7
      thresh= 1.545E-07 alpha_mix =  0.700 |ddv_scf|^2 =  3.034E-13

     End of self-consistent calculation

     Convergence has been achieved 


     Representation #  17 mode #  17

     Self-consistent Calculation

      iter #   1 total cpu time : 17235.5 secs   av.it.:   9.9
      thresh= 1.000E-02 alpha_mix =  0.700 |ddv_scf|^2 =  2.545E-07

      iter #   2 total cpu time : 17362.9 secs   av.it.:  20.7
      thresh= 5.045E-05 alpha_mix =  0.700 |ddv_scf|^2 =  5.461E-08

      iter #   3 total cpu time : 17488.0 secs   av.it.:  20.1
      thresh= 2.337E-05 alpha_mix =  0.700 |ddv_scf|^2 =  2.262E-09

      iter #   4 total cpu time : 17617.1 secs   av.it.:  21.0
      thresh= 4.756E-06 alpha_mix =  0.700 |ddv_scf|^2 =  6.290E-10

      iter #   5 total cpu time : 17741.4 secs   av.it.:  20.1
      thresh= 2.508E-06 alpha_mix =  0.700 |ddv_scf|^2 =  1.277E-11

      iter #   6 total cpu time : 17868.0 secs   av.it.:  20.4
      thresh= 3.573E-07 alpha_mix =  0.700 |ddv_scf|^2 =  1.802E-12

      iter #   7 total cpu time : 17995.6 secs   av.it.:  20.8
      thresh= 1.342E-07 alpha_mix =  0.700 |ddv_scf|^2 =  2.542E-13

     End of self-consistent calculation

     Convergence has been achieved 


     Representation #  18 mode #  18

     Self-consistent Calculation

      iter #   1 total cpu time : 18069.0 secs   av.it.:   9.9
      thresh= 1.000E-02 alpha_mix =  0.700 |ddv_scf|^2 =  4.575E-07

      iter #   2 total cpu time : 18195.6 secs   av.it.:  20.6
      thresh= 6.764E-05 alpha_mix =  0.700 |ddv_scf|^2 =  2.990E-07

      iter #   3 total cpu time : 18316.5 secs   av.it.:  19.5
      thresh= 5.468E-05 alpha_mix =  0.700 |ddv_scf|^2 =  1.038E-08

      iter #   4 total cpu time : 18441.6 secs   av.it.:  20.2
      thresh= 1.019E-05 alpha_mix =  0.700 |ddv_scf|^2 =  1.653E-09

      iter #   5 total cpu time : 18564.2 secs   av.it.:  19.8
      thresh= 4.066E-06 alpha_mix =  0.700 |ddv_scf|^2 =  1.225E-11

      iter #   6 total cpu time : 18692.7 secs   av.it.:  20.9
      thresh= 3.500E-07 alpha_mix =  0.700 |ddv_scf|^2 =  2.382E-12

      iter #   7 total cpu time : 18820.6 secs   av.it.:  20.8
      thresh= 1.543E-07 alpha_mix =  0.700 |ddv_scf|^2 =  3.035E-13

     End of self-consistent calculation

     Convergence has been achieved 


     Representation #  19 mode #  19

     Self-consistent Calculation

      iter #   1 total cpu time : 18892.7 secs   av.it.:   9.9
      thresh= 1.000E-02 alpha_mix =  0.700 |ddv_scf|^2 =  2.570E-07

      iter #   2 total cpu time : 19019.4 secs   av.it.:  20.4
      thresh= 5.070E-05 alpha_mix =  0.700 |ddv_scf|^2 =  6.106E-08

      iter #   3 total cpu time : 19143.5 secs   av.it.:  20.0
      thresh= 2.471E-05 alpha_mix =  0.700 |ddv_scf|^2 =  5.780E-09

      iter #   4 total cpu time : 19267.9 secs   av.it.:  20.0
      thresh= 7.603E-06 alpha_mix =  0.700 |ddv_scf|^2 =  6.178E-10

      iter #   5 total cpu time : 19384.4 secs   av.it.:  20.0
      thresh= 2.485E-06 alpha_mix =  0.700 |ddv_scf|^2 =  7.655E-12

      iter #   6 total cpu time : 19452.8 secs   av.it.:  21.0
      thresh= 2.767E-07 alpha_mix =  0.700 |ddv_scf|^2 =  1.382E-12

      iter #   7 total cpu time : 19521.6 secs   av.it.:  20.9
      thresh= 1.176E-07 alpha_mix =  0.700 |ddv_scf|^2 =  3.021E-13

     End of self-consistent calculation

     Convergence has been achieved 


     Representation #  20 mode #  20

     Self-consistent Calculation

      iter #   1 total cpu time : 19560.7 secs   av.it.:   9.9
      thresh= 1.000E-02 alpha_mix =  0.700 |ddv_scf|^2 =  3.539E-07

      iter #   2 total cpu time : 19628.3 secs   av.it.:  20.7
      thresh= 5.949E-05 alpha_mix =  0.700 |ddv_scf|^2 =  1.770E-07

      iter #   3 total cpu time : 19693.9 secs   av.it.:  20.0
      thresh= 4.207E-05 alpha_mix =  0.700 |ddv_scf|^2 =  7.575E-09

      iter #   4 total cpu time : 19759.9 secs   av.it.:  20.0
      thresh= 8.703E-06 alpha_mix =  0.700 |ddv_scf|^2 =  1.196E-09

      iter #   5 total cpu time : 19825.5 secs   av.it.:  19.9
      thresh= 3.458E-06 alpha_mix =  0.700 |ddv_scf|^2 =  2.521E-11

      iter #   6 total cpu time : 19893.3 secs   av.it.:  20.8
      thresh= 5.021E-07 alpha_mix =  0.700 |ddv_scf|^2 =  3.908E-12

      iter #   7 total cpu time : 19960.4 secs   av.it.:  20.5
      thresh= 1.977E-07 alpha_mix =  0.700 |ddv_scf|^2 =  3.164E-13

     End of self-consistent calculation

     Convergence has been achieved 


     Representation #  21 mode #  21

     Self-consistent Calculation

      iter #   1 total cpu time : 19998.6 secs   av.it.:  10.0
      thresh= 1.000E-02 alpha_mix =  0.700 |ddv_scf|^2 =  3.901E-07

      iter #   2 total cpu time : 20065.6 secs   av.it.:  20.5
      thresh= 6.246E-05 alpha_mix =  0.700 |ddv_scf|^2 =  2.003E-07

      iter #   3 total cpu time : 20129.9 secs   av.it.:  19.6
      thresh= 4.475E-05 alpha_mix =  0.700 |ddv_scf|^2 =  1.007E-08

      iter #   4 total cpu time : 20195.9 secs   av.it.:  20.0
      thresh= 1.003E-05 alpha_mix =  0.700 |ddv_scf|^2 =  1.309E-09

      iter #   5 total cpu time : 20261.5 secs   av.it.:  19.9
      thresh= 3.617E-06 alpha_mix =  0.700 |ddv_scf|^2 =  8.321E-12

      iter #   6 total cpu time : 20329.7 secs   av.it.:  21.0
      thresh= 2.885E-07 alpha_mix =  0.700 |ddv_scf|^2 =  1.385E-12

      iter #   7 total cpu time : 20397.5 secs   av.it.:  20.8
      thresh= 1.177E-07 alpha_mix =  0.700 |ddv_scf|^2 =  2.444E-13

     End of self-consistent calculation

     Convergence has been achieved 


     Representation #  22 mode #  22

     Self-consistent Calculation

      iter #   1 total cpu time : 20436.4 secs   av.it.:  10.0
      thresh= 1.000E-02 alpha_mix =  0.700 |ddv_scf|^2 =  3.564E-07

      iter #   2 total cpu time : 20504.3 secs   av.it.:  20.8
      thresh= 5.970E-05 alpha_mix =  0.700 |ddv_scf|^2 =  1.835E-07

      iter #   3 total cpu time : 20569.9 secs   av.it.:  20.0
      thresh= 4.284E-05 alpha_mix =  0.700 |ddv_scf|^2 =  8.523E-09

      iter #   4 total cpu time : 20636.0 secs   av.it.:  20.1
      thresh= 9.232E-06 alpha_mix =  0.700 |ddv_scf|^2 =  1.238E-09

      iter #   5 total cpu time : 20701.4 secs   av.it.:  19.9
      thresh= 3.518E-06 alpha_mix =  0.700 |ddv_scf|^2 =  2.164E-11

      iter #   6 total cpu time : 20769.4 secs   av.it.:  21.0
      thresh= 4.652E-07 alpha_mix =  0.700 |ddv_scf|^2 =  3.681E-12

      iter #   7 total cpu time : 20836.9 secs   av.it.:  20.8
      thresh= 1.919E-07 alpha_mix =  0.700 |ddv_scf|^2 =  3.050E-13

     End of self-consistent calculation

     Convergence has been achieved 


     Representation #  23 mode #  23

     Self-consistent Calculation

      iter #   1 total cpu time : 20875.4 secs   av.it.:   9.9
      thresh= 1.000E-02 alpha_mix =  0.700 |ddv_scf|^2 =  2.545E-07

      iter #   2 total cpu time : 20942.8 secs   av.it.:  20.7
      thresh= 5.045E-05 alpha_mix =  0.700 |ddv_scf|^2 =  5.461E-08

      iter #   3 total cpu time : 21009.0 secs   av.it.:  20.1
      thresh= 2.337E-05 alpha_mix =  0.700 |ddv_scf|^2 =  2.263E-09

      iter #   4 total cpu time : 21077.3 secs   av.it.:  21.0
      thresh= 4.757E-06 alpha_mix =  0.700 |ddv_scf|^2 =  6.293E-10

      iter #   5 total cpu time : 21142.8 secs   av.it.:  20.1
      thresh= 2.509E-06 alpha_mix =  0.700 |ddv_scf|^2 =  1.275E-11

      iter #   6 total cpu time : 21204.8 secs   av.it.:  20.4
      thresh= 3.571E-07 alpha_mix =  0.700 |ddv_scf|^2 =  1.794E-12

      iter #   7 total cpu time : 21267.6 secs   av.it.:  20.8
      thresh= 1.339E-07 alpha_mix =  0.700 |ddv_scf|^2 =  2.518E-13

     End of self-consistent calculation

     Convergence has been achieved 


     Representation #  24 mode #  24

     Self-consistent Calculation

      iter #   1 total cpu time : 21303.0 secs   av.it.:  10.0
      thresh= 1.000E-02 alpha_mix =  0.700 |ddv_scf|^2 =  3.901E-07

      iter #   2 total cpu time : 21365.2 secs   av.it.:  20.5
      thresh= 6.246E-05 alpha_mix =  0.700 |ddv_scf|^2 =  2.003E-07

      iter #   3 total cpu time : 21424.8 secs   av.it.:  19.6
      thresh= 4.475E-05 alpha_mix =  0.700 |ddv_scf|^2 =  1.007E-08

      iter #   4 total cpu time : 21486.0 secs   av.it.:  20.0
      thresh= 1.003E-05 alpha_mix =  0.700 |ddv_scf|^2 =  1.309E-09

      iter #   5 total cpu time : 21546.9 secs   av.it.:  19.9
      thresh= 3.617E-06 alpha_mix =  0.700 |ddv_scf|^2 =  8.322E-12

      iter #   6 total cpu time : 21609.9 secs   av.it.:  21.0
      thresh= 2.885E-07 alpha_mix =  0.700 |ddv_scf|^2 =  1.385E-12

      iter #   7 total cpu time : 21672.6 secs   av.it.:  20.8
      thresh= 1.177E-07 alpha_mix =  0.700 |ddv_scf|^2 =  2.446E-13

     End of self-consistent calculation

     Convergence has been achieved 


     Representation #  25 mode #  25

     Self-consistent Calculation

      iter #   1 total cpu time : 21708.5 secs   av.it.:  10.0
      thresh= 1.000E-02 alpha_mix =  0.700 |ddv_scf|^2 =  3.564E-07

      iter #   2 total cpu time : 21771.2 secs   av.it.:  20.8
      thresh= 5.970E-05 alpha_mix =  0.700 |ddv_scf|^2 =  1.835E-07

      iter #   3 total cpu time : 21831.9 secs   av.it.:  20.0
      thresh= 4.284E-05 alpha_mix =  0.700 |ddv_scf|^2 =  8.523E-09

      iter #   4 total cpu time : 21893.2 secs   av.it.:  20.1
      thresh= 9.232E-06 alpha_mix =  0.700 |ddv_scf|^2 =  1.238E-09

      iter #   5 total cpu time : 21953.9 secs   av.it.:  19.9
      thresh= 3.518E-06 alpha_mix =  0.700 |ddv_scf|^2 =  2.164E-11

      iter #   6 total cpu time : 22017.1 secs   av.it.:  21.0
      thresh= 4.652E-07 alpha_mix =  0.700 |ddv_scf|^2 =  3.682E-12

      iter #   7 total cpu time : 22079.6 secs   av.it.:  20.8
      thresh= 1.919E-07 alpha_mix =  0.700 |ddv_scf|^2 =  3.050E-13

     End of self-consistent calculation

     Convergence has been achieved 


     Representation #  26 mode #  26

     Self-consistent Calculation

      iter #   1 total cpu time : 22115.2 secs   av.it.:   9.9
      thresh= 1.000E-02 alpha_mix =  0.700 |ddv_scf|^2 =  2.545E-07

      iter #   2 total cpu time : 22177.7 secs   av.it.:  20.7
      thresh= 5.045E-05 alpha_mix =  0.700 |ddv_scf|^2 =  5.461E-08

      iter #   3 total cpu time : 22239.0 secs   av.it.:  20.1
      thresh= 2.337E-05 alpha_mix =  0.700 |ddv_scf|^2 =  2.263E-09

      iter #   4 total cpu time : 22302.2 secs   av.it.:  21.0
      thresh= 4.757E-06 alpha_mix =  0.700 |ddv_scf|^2 =  6.293E-10

      iter #   5 total cpu time : 22363.2 secs   av.it.:  20.1
      thresh= 2.509E-06 alpha_mix =  0.700 |ddv_scf|^2 =  1.275E-11

      iter #   6 total cpu time : 22425.2 secs   av.it.:  20.4
      thresh= 3.571E-07 alpha_mix =  0.700 |ddv_scf|^2 =  1.794E-12

      iter #   7 total cpu time : 22487.7 secs   av.it.:  20.8
      thresh= 1.339E-07 alpha_mix =  0.700 |ddv_scf|^2 =  2.518E-13

     End of self-consistent calculation

     Convergence has been achieved 


     Representation #  27 mode #  27

     Self-consistent Calculation

      iter #   1 total cpu time : 22523.0 secs   av.it.:  10.0
      thresh= 1.000E-02 alpha_mix =  0.700 |ddv_scf|^2 =  3.901E-07

      iter #   2 total cpu time : 22585.3 secs   av.it.:  20.5
      thresh= 6.246E-05 alpha_mix =  0.700 |ddv_scf|^2 =  2.003E-07

      iter #   3 total cpu time : 22644.7 secs   av.it.:  19.6
      thresh= 4.475E-05 alpha_mix =  0.700 |ddv_scf|^2 =  1.007E-08

      iter #   4 total cpu time : 22705.9 secs   av.it.:  20.0
      thresh= 1.003E-05 alpha_mix =  0.700 |ddv_scf|^2 =  1.309E-09

      iter #   5 total cpu time : 22766.6 secs   av.it.:  19.9
      thresh= 3.617E-06 alpha_mix =  0.700 |ddv_scf|^2 =  8.322E-12

      iter #   6 total cpu time : 22829.7 secs   av.it.:  21.0
      thresh= 2.885E-07 alpha_mix =  0.700 |ddv_scf|^2 =  1.385E-12

      iter #   7 total cpu time : 22892.4 secs   av.it.:  20.8
      thresh= 1.177E-07 alpha_mix =  0.700 |ddv_scf|^2 =  2.446E-13

     End of self-consistent calculation

     Convergence has been achieved 


     Representation #  28 mode #  28

     Self-consistent Calculation

      iter #   1 total cpu time : 22928.0 secs   av.it.:   9.9
      thresh= 1.000E-02 alpha_mix =  0.700 |ddv_scf|^2 =  2.894E-07

      iter #   2 total cpu time : 22990.4 secs   av.it.:  20.5
      thresh= 5.379E-05 alpha_mix =  0.700 |ddv_scf|^2 =  8.545E-08

      iter #   3 total cpu time : 23051.5 secs   av.it.:  20.0
      thresh= 2.923E-05 alpha_mix =  0.700 |ddv_scf|^2 =  2.963E-09

      iter #   4 total cpu time : 23114.8 secs   av.it.:  21.0
      thresh= 5.444E-06 alpha_mix =  0.700 |ddv_scf|^2 =  9.755E-10

      iter #   5 total cpu time : 23175.3 secs   av.it.:  19.9
      thresh= 3.123E-06 alpha_mix =  0.700 |ddv_scf|^2 =  1.697E-11

      iter #   6 total cpu time : 23237.6 secs   av.it.:  20.7
      thresh= 4.120E-07 alpha_mix =  0.700 |ddv_scf|^2 =  2.388E-12

      iter #   7 total cpu time : 23300.1 secs   av.it.:  20.7
      thresh= 1.545E-07 alpha_mix =  0.700 |ddv_scf|^2 =  3.034E-13

     End of self-consistent calculation

     Convergence has been achieved 


     Representation #  29 mode #  29

     Self-consistent Calculation

      iter #   1 total cpu time : 23336.0 secs   av.it.:   9.9
      thresh= 1.000E-02 alpha_mix =  0.700 |ddv_scf|^2 =  2.545E-07

      iter #   2 total cpu time : 23398.4 secs   av.it.:  20.7
      thresh= 5.045E-05 alpha_mix =  0.700 |ddv_scf|^2 =  5.461E-08

      iter #   3 total cpu time : 23459.8 secs   av.it.:  20.1
      thresh= 2.337E-05 alpha_mix =  0.700 |ddv_scf|^2 =  2.262E-09

      iter #   4 total cpu time : 23523.1 secs   av.it.:  21.0
      thresh= 4.756E-06 alpha_mix =  0.700 |ddv_scf|^2 =  6.290E-10

      iter #   5 total cpu time : 23584.1 secs   av.it.:  20.1
      thresh= 2.508E-06 alpha_mix =  0.700 |ddv_scf|^2 =  1.277E-11

      iter #   6 total cpu time : 23646.0 secs   av.it.:  20.4
      thresh= 3.573E-07 alpha_mix =  0.700 |ddv_scf|^2 =  1.802E-12

      iter #   7 total cpu time : 23708.6 secs   av.it.:  20.8
      thresh= 1.342E-07 alpha_mix =  0.700 |ddv_scf|^2 =  2.542E-13

     End of self-consistent calculation

     Convergence has been achieved 


     Representation #  30 mode #  30

     Self-consistent Calculation

      iter #   1 total cpu time : 23744.5 secs   av.it.:   9.9
      thresh= 1.000E-02 alpha_mix =  0.700 |ddv_scf|^2 =  4.575E-07

      iter #   2 total cpu time : 23806.8 secs   av.it.:  20.6
      thresh= 6.764E-05 alpha_mix =  0.700 |ddv_scf|^2 =  2.990E-07

      iter #   3 total cpu time : 23866.0 secs   av.it.:  19.5
      thresh= 5.468E-05 alpha_mix =  0.700 |ddv_scf|^2 =  1.038E-08

      iter #   4 total cpu time : 23927.3 secs   av.it.:  20.2
      thresh= 1.019E-05 alpha_mix =  0.700 |ddv_scf|^2 =  1.653E-09

      iter #   5 total cpu time : 23987.6 secs   av.it.:  19.8
      thresh= 4.066E-06 alpha_mix =  0.700 |ddv_scf|^2 =  1.225E-11

      iter #   6 total cpu time : 24051.0 secs   av.it.:  20.9
      thresh= 3.500E-07 alpha_mix =  0.700 |ddv_scf|^2 =  2.382E-12

      iter #   7 total cpu time : 24113.7 secs   av.it.:  20.9
      thresh= 1.543E-07 alpha_mix =  0.700 |ddv_scf|^2 =  3.035E-13

     End of self-consistent calculation

     Convergence has been achieved 


     Representation #  31 mode #  31

     Self-consistent Calculation

      iter #   1 total cpu time : 24148.2 secs   av.it.:   9.2
      thresh= 1.000E-02 alpha_mix =  0.700 |ddv_scf|^2 =  2.570E-07

      iter #   2 total cpu time : 24210.4 secs   av.it.:  20.6
      thresh= 5.070E-05 alpha_mix =  0.700 |ddv_scf|^2 =  6.581E-08

      iter #   3 total cpu time : 24271.6 secs   av.it.:  20.1
      thresh= 2.565E-05 alpha_mix =  0.700 |ddv_scf|^2 =  5.710E-09

      iter #   4 total cpu time : 24332.9 secs   av.it.:  20.1
      thresh= 7.557E-06 alpha_mix =  0.700 |ddv_scf|^2 =  7.248E-10

      iter #   5 total cpu time : 24393.9 secs   av.it.:  20.0
      thresh= 2.692E-06 alpha_mix =  0.700 |ddv_scf|^2 =  1.264E-11

      iter #   6 total cpu time : 24455.9 secs   av.it.:  20.5
      thresh= 3.556E-07 alpha_mix =  0.700 |ddv_scf|^2 =  1.097E-12

      iter #   7 total cpu time : 24519.5 secs   av.it.:  21.0
      thresh= 1.047E-07 alpha_mix =  0.700 |ddv_scf|^2 =  3.221E-13

     End of self-consistent calculation

     Convergence has been achieved 


     Representation #  32 mode #  32

     Self-consistent Calculation

      iter #   1 total cpu time : 24553.5 secs   av.it.:   9.0
      thresh= 1.000E-02 alpha_mix =  0.700 |ddv_scf|^2 =  2.297E-07

      iter #   2 total cpu time : 24615.4 secs   av.it.:  20.3
      thresh= 4.793E-05 alpha_mix =  0.700 |ddv_scf|^2 =  3.984E-08

      iter #   3 total cpu time : 24676.8 secs   av.it.:  20.2
      thresh= 1.996E-05 alpha_mix =  0.700 |ddv_scf|^2 =  3.995E-09

      iter #   4 total cpu time : 24738.3 secs   av.it.:  20.2
      thresh= 6.321E-06 alpha_mix =  0.700 |ddv_scf|^2 =  5.090E-10

      iter #   5 total cpu time : 24799.1 secs   av.it.:  19.9
      thresh= 2.256E-06 alpha_mix =  0.700 |ddv_scf|^2 =  1.041E-11

      iter #   6 total cpu time : 24861.2 secs   av.it.:  20.5
      thresh= 3.226E-07 alpha_mix =  0.700 |ddv_scf|^2 =  1.205E-12

      iter #   7 total cpu time : 24924.1 secs   av.it.:  20.9
      thresh= 1.098E-07 alpha_mix =  0.700 |ddv_scf|^2 =  3.315E-13

     End of self-consistent calculation

     Convergence has been achieved 


     Representation #  33 mode #  33

     Self-consistent Calculation

      iter #   1 total cpu time : 24960.0 secs   av.it.:   9.9
      thresh= 1.000E-02 alpha_mix =  0.700 |ddv_scf|^2 =  4.889E-07

      iter #   2 total cpu time : 25021.9 secs   av.it.:  20.4
      thresh= 6.992E-05 alpha_mix =  0.700 |ddv_scf|^2 =  2.863E-07

      iter #   3 total cpu time : 25081.2 secs   av.it.:  19.5
      thresh= 5.351E-05 alpha_mix =  0.700 |ddv_scf|^2 =  6.777E-09

      iter #   4 total cpu time : 25142.9 secs   av.it.:  20.4
      thresh= 8.232E-06 alpha_mix =  0.700 |ddv_scf|^2 =  1.895E-09

      iter #   5 total cpu time : 25202.6 secs   av.it.:  19.6
      thresh= 4.353E-06 alpha_mix =  0.700 |ddv_scf|^2 =  1.058E-11

      iter #   6 total cpu time : 25265.4 secs   av.it.:  20.8
      thresh= 3.253E-07 alpha_mix =  0.700 |ddv_scf|^2 =  1.444E-12

      iter #   7 total cpu time : 25328.5 secs   av.it.:  20.9
      thresh= 1.202E-07 alpha_mix =  0.700 |ddv_scf|^2 =  1.894E-13

     End of self-consistent calculation

     Convergence has been achieved 


     Representation #  34 mode #  34

     Self-consistent Calculation

      iter #   1 total cpu time : 25363.1 secs   av.it.:   9.2
      thresh= 1.000E-02 alpha_mix =  0.700 |ddv_scf|^2 =  2.570E-07

      iter #   2 total cpu time : 25425.3 secs   av.it.:  20.6
      thresh= 5.070E-05 alpha_mix =  0.700 |ddv_scf|^2 =  6.581E-08

      iter #   3 total cpu time : 25486.5 secs   av.it.:  20.1
      thresh= 2.565E-05 alpha_mix =  0.700 |ddv_scf|^2 =  5.710E-09

      iter #   4 total cpu time : 25547.9 secs   av.it.:  20.1
      thresh= 7.557E-06 alpha_mix =  0.700 |ddv_scf|^2 =  7.248E-10

      iter #   5 total cpu time : 25608.9 secs   av.it.:  20.0
      thresh= 2.692E-06 alpha_mix =  0.700 |ddv_scf|^2 =  1.264E-11

      iter #   6 total cpu time : 25671.0 secs   av.it.:  20.5
      thresh= 3.556E-07 alpha_mix =  0.700 |ddv_scf|^2 =  1.097E-12

      iter #   7 total cpu time : 25734.6 secs   av.it.:  21.0
      thresh= 1.047E-07 alpha_mix =  0.700 |ddv_scf|^2 =  3.221E-13

     End of self-consistent calculation

     Convergence has been achieved 


     Representation #  35 mode #  35

     Self-consistent Calculation

      iter #   1 total cpu time : 25768.6 secs   av.it.:   9.0
      thresh= 1.000E-02 alpha_mix =  0.700 |ddv_scf|^2 =  2.297E-07

      iter #   2 total cpu time : 25830.2 secs   av.it.:  20.3
      thresh= 4.793E-05 alpha_mix =  0.700 |ddv_scf|^2 =  3.984E-08

      iter #   3 total cpu time : 25891.6 secs   av.it.:  20.2
      thresh= 1.996E-05 alpha_mix =  0.700 |ddv_scf|^2 =  3.995E-09

      iter #   4 total cpu time : 25953.0 secs   av.it.:  20.2
      thresh= 6.321E-06 alpha_mix =  0.700 |ddv_scf|^2 =  5.089E-10

      iter #   5 total cpu time : 26013.8 secs   av.it.:  19.9
      thresh= 2.256E-06 alpha_mix =  0.700 |ddv_scf|^2 =  1.041E-11

      iter #   6 total cpu time : 26075.9 secs   av.it.:  20.5
      thresh= 3.226E-07 alpha_mix =  0.700 |ddv_scf|^2 =  1.205E-12

      iter #   7 total cpu time : 26138.8 secs   av.it.:  20.9
      thresh= 1.098E-07 alpha_mix =  0.700 |ddv_scf|^2 =  3.315E-13

     End of self-consistent calculation

     Convergence has been achieved 


     Representation #  36 mode #  36

     Self-consistent Calculation

      iter #   1 total cpu time : 26174.6 secs   av.it.:   9.9
      thresh= 1.000E-02 alpha_mix =  0.700 |ddv_scf|^2 =  4.889E-07

      iter #   2 total cpu time : 26236.4 secs   av.it.:  20.4
      thresh= 6.992E-05 alpha_mix =  0.700 |ddv_scf|^2 =  2.863E-07

      iter #   3 total cpu time : 26295.7 secs   av.it.:  19.5
      thresh= 5.351E-05 alpha_mix =  0.700 |ddv_scf|^2 =  6.777E-09

      iter #   4 total cpu time : 26357.4 secs   av.it.:  20.4
      thresh= 8.232E-06 alpha_mix =  0.700 |ddv_scf|^2 =  1.895E-09

      iter #   5 total cpu time : 26417.0 secs   av.it.:  19.6
      thresh= 4.353E-06 alpha_mix =  0.700 |ddv_scf|^2 =  1.058E-11

      iter #   6 total cpu time : 26479.9 secs   av.it.:  20.8
      thresh= 3.253E-07 alpha_mix =  0.700 |ddv_scf|^2 =  1.444E-12

      iter #   7 total cpu time : 26543.0 secs   av.it.:  20.9
      thresh= 1.202E-07 alpha_mix =  0.700 |ddv_scf|^2 =  1.894E-13

     End of self-consistent calculation

     Convergence has been achieved 


     Representation #  37 mode #  37

     Self-consistent Calculation

      iter #   1 total cpu time : 26578.7 secs   av.it.:   9.9
      thresh= 1.000E-02 alpha_mix =  0.700 |ddv_scf|^2 =  2.570E-07

      iter #   2 total cpu time : 26640.9 secs   av.it.:  20.4
      thresh= 5.070E-05 alpha_mix =  0.700 |ddv_scf|^2 =  6.106E-08

      iter #   3 total cpu time : 26701.7 secs   av.it.:  20.0
      thresh= 2.471E-05 alpha_mix =  0.700 |ddv_scf|^2 =  5.780E-09

      iter #   4 total cpu time : 26762.6 secs   av.it.:  20.0
      thresh= 7.603E-06 alpha_mix =  0.700 |ddv_scf|^2 =  6.178E-10

      iter #   5 total cpu time : 26823.8 secs   av.it.:  20.0
      thresh= 2.485E-06 alpha_mix =  0.700 |ddv_scf|^2 =  7.655E-12

      iter #   6 total cpu time : 26887.0 secs   av.it.:  21.0
      thresh= 2.767E-07 alpha_mix =  0.700 |ddv_scf|^2 =  1.382E-12

      iter #   7 total cpu time : 26950.1 secs   av.it.:  20.9
      thresh= 1.176E-07 alpha_mix =  0.700 |ddv_scf|^2 =  3.021E-13

     End of self-consistent calculation

     Convergence has been achieved 


     Representation #  38 mode #  38

     Self-consistent Calculation

      iter #   1 total cpu time : 26986.0 secs   av.it.:   9.9
      thresh= 1.000E-02 alpha_mix =  0.700 |ddv_scf|^2 =  3.539E-07

      iter #   2 total cpu time : 27048.4 secs   av.it.:  20.7
      thresh= 5.949E-05 alpha_mix =  0.700 |ddv_scf|^2 =  1.770E-07

      iter #   3 total cpu time : 27108.9 secs   av.it.:  20.0
      thresh= 4.207E-05 alpha_mix =  0.700 |ddv_scf|^2 =  7.575E-09

      iter #   4 total cpu time : 27170.0 secs   av.it.:  20.0
      thresh= 8.703E-06 alpha_mix =  0.700 |ddv_scf|^2 =  1.196E-09

      iter #   5 total cpu time : 27230.5 secs   av.it.:  19.9
      thresh= 3.458E-06 alpha_mix =  0.700 |ddv_scf|^2 =  2.521E-11

      iter #   6 total cpu time : 27293.1 secs   av.it.:  20.8
      thresh= 5.021E-07 alpha_mix =  0.700 |ddv_scf|^2 =  3.908E-12

      iter #   7 total cpu time : 27355.4 secs   av.it.:  20.5
      thresh= 1.977E-07 alpha_mix =  0.700 |ddv_scf|^2 =  3.164E-13

     End of self-consistent calculation

     Convergence has been achieved 


     Representation #  39 mode #  39

     Self-consistent Calculation

      iter #   1 total cpu time : 27390.8 secs   av.it.:  10.0
      thresh= 1.000E-02 alpha_mix =  0.700 |ddv_scf|^2 =  3.901E-07

      iter #   2 total cpu time : 27453.0 secs   av.it.:  20.5
      thresh= 6.246E-05 alpha_mix =  0.700 |ddv_scf|^2 =  2.003E-07

      iter #   3 total cpu time : 27512.5 secs   av.it.:  19.6
      thresh= 4.475E-05 alpha_mix =  0.700 |ddv_scf|^2 =  1.007E-08

      iter #   4 total cpu time : 27573.8 secs   av.it.:  20.0
      thresh= 1.003E-05 alpha_mix =  0.700 |ddv_scf|^2 =  1.309E-09

      iter #   5 total cpu time : 27634.6 secs   av.it.:  19.9
      thresh= 3.617E-06 alpha_mix =  0.700 |ddv_scf|^2 =  8.321E-12

      iter #   6 total cpu time : 27697.6 secs   av.it.:  21.0
      thresh= 2.885E-07 alpha_mix =  0.700 |ddv_scf|^2 =  1.384E-12

      iter #   7 total cpu time : 27760.2 secs   av.it.:  20.8
      thresh= 1.177E-07 alpha_mix =  0.700 |ddv_scf|^2 =  2.444E-13

     End of self-consistent calculation

     Convergence has been achieved 

     Number of q in the star =    1
     List of q in the star:
          1   0.000000000   0.000000000   0.000000000

          Dielectric constant in cartesian axis 

          (       3.202466195       0.007065067       0.026854239 )
          (       0.007065072       3.196011639       0.017252480 )
          (       0.026854271       0.017252520       3.257055557 )

          Effective charges (d Force / dE) in cartesian axis

           atom      1   Ca 
      Ex  (        2.61212       -0.01429       -0.05432 )
      Ey  (       -0.01429        2.62520       -0.03488 )
      Ez  (       -0.05432       -0.03488        2.50178 )
           atom      2   Ca 
      Ex  (        2.60406        0.03505        0.13325 )
      Ey  (        0.03505        2.57199        0.08557 )
      Ez  (        0.13326        0.08557        2.87478 )
           atom      3   Ca 
      Ex  (        2.60406        0.03505        0.13325 )
      Ey  (        0.03505        2.57199        0.08557 )
      Ez  (        0.13326        0.08557        2.87479 )
           atom      4   P  
      Ex  (        3.36265        0.01473        0.05595 )
      Ey  (        0.01472        3.34918        0.03593 )
      Ez  (        0.05596        0.03594        3.47634 )
           atom      5   P  
      Ex  (        3.36266        0.01471        0.05595 )
      Ey  (        0.01472        3.34919        0.03594 )
      Ez  (        0.05596        0.03594        3.47634 )
           atom      6   O  
      Ex  (       -1.85081       -0.22683        0.41632 )
      Ey  (       -0.22682       -1.64323        0.26733 )
      Ez  (        0.45240        0.29050       -2.06479 )
           atom      7   O  
      Ex  (       -1.50220       -0.05725       -0.01130 )
      Ey  (       -0.04099       -2.53146       -0.10008 )
      Ez  (       -0.01130       -0.13976       -1.52517 )
           atom      8   O  
      Ex  (       -2.39043        0.36545       -0.09570 )
      Ey  (        0.34919       -1.64323        0.03136 )
      Ez  (       -0.13179        0.04788       -1.52516 )
           atom      9   O  
      Ex  (       -2.39043        0.36545       -0.09570 )
      Ey  (        0.34919       -1.64322        0.03136 )
      Ez  (       -0.13179        0.04788       -1.52516 )
           atom     10   O  
      Ex  (       -1.85081       -0.22683        0.41631 )
      Ey  (       -0.22683       -1.64323        0.26733 )
      Ez  (        0.45240        0.29050       -2.06479 )
           atom     11   O  
      Ex  (       -1.52742       -0.12363       -0.46997 )
      Ey  (       -0.12363       -1.41429       -0.30179 )
      Ez  (       -0.46998       -0.30179       -2.48217 )
           atom     12   O  
      Ex  (       -1.52742       -0.12363       -0.46997 )
      Ey  (       -0.12363       -1.41429       -0.30179 )
      Ez  (       -0.46998       -0.30179       -2.48217 )
           atom     13   O  
      Ex  (       -1.50220       -0.05726       -0.01130 )
      Ey  (       -0.04100       -2.53145       -0.10008 )
      Ez  (       -0.01130       -0.13976       -1.52517 )

     Diagonalizing the dynamical matrix

     q = (    0.000000000   0.000000000   0.000000000 ) 

 **************************************************************************
     freq (    1) =      -3.605241 [THz] =    -120.257907 [cm-1]
     freq (    2) =      -1.025598 [THz] =     -34.210258 [cm-1]
     freq (    3) =      -0.880717 [THz] =     -29.377544 [cm-1]
     freq (    4) =      -0.844949 [THz] =     -28.184474 [cm-1]
     freq (    5) =       0.715048 [THz] =      23.851426 [cm-1]
     freq (    6) =       0.734704 [THz] =      24.507080 [cm-1]
     freq (    7) =       1.548859 [THz] =      51.664378 [cm-1]
     freq (    8) =       3.719777 [THz] =     124.078415 [cm-1]
     freq (    9) =       3.773103 [THz] =     125.857167 [cm-1]
     freq (   10) =       4.527864 [THz] =     151.033286 [cm-1]
     freq (   11) =       4.575937 [THz] =     152.636840 [cm-1]
     freq (   12) =       5.421976 [THz] =     180.857666 [cm-1]
     freq (   13) =       5.433235 [THz] =     181.233207 [cm-1]
     freq (   14) =       6.131331 [THz] =     204.519195 [cm-1]
     freq (   15) =       6.208382 [THz] =     207.089336 [cm-1]
     freq (   16) =       6.256690 [THz] =     208.700722 [cm-1]
     freq (   17) =       6.822385 [THz] =     227.570257 [cm-1]
     freq (   18) =       6.861001 [THz] =     228.858359 [cm-1]
     freq (   19) =       7.623767 [THz] =     254.301500 [cm-1]
     freq (   20) =       8.486560 [THz] =     283.081180 [cm-1]
     freq (   21) =       8.520957 [THz] =     284.228516 [cm-1]
     freq (   22) =      11.581325 [THz] =     386.311432 [cm-1]
     freq (   23) =      11.595705 [THz] =     386.791090 [cm-1]
     freq (   24) =      13.269354 [THz] =     442.617996 [cm-1]
     freq (   25) =      13.278148 [THz] =     442.911345 [cm-1]
     freq (   26) =      15.793870 [THz] =     526.826789 [cm-1]
     freq (   27) =      15.803021 [THz] =     527.132039 [cm-1]
     freq (   28) =      16.266202 [THz] =     542.582088 [cm-1]
     freq (   29) =      16.278370 [THz] =     542.987980 [cm-1]
     freq (   30) =      16.325715 [THz] =     544.567236 [cm-1]
     freq (   31) =      18.430680 [THz] =     614.781307 [cm-1]
     freq (   32) =      29.702881 [THz] =     990.781464 [cm-1]
     freq (   33) =      29.937801 [THz] =     998.617544 [cm-1]
     freq (   34) =      31.164662 [THz] =    1039.541243 [cm-1]
     freq (   35) =      31.168935 [THz] =    1039.683744 [cm-1]
     freq (   36) =      31.380230 [THz] =    1046.731796 [cm-1]
     freq (   37) =      31.389451 [THz] =    1047.039377 [cm-1]
     freq (   38) =      33.820170 [THz] =    1128.119456 [cm-1]
     freq (   39) =      33.945034 [THz] =    1132.284456 [cm-1]
 **************************************************************************

     Mode symmetry, C_1 (1)     point group:

     freq (   1-   1) =       -120.3  [cm-1]   --> A               I+R
     freq (   2-   2) =        -34.2  [cm-1]   --> A               I+R
     freq (   3-   3) =        -29.4  [cm-1]   --> A               I+R
     freq (   4-   4) =        -28.2  [cm-1]   --> A               I+R
     freq (   5-   5) =         23.9  [cm-1]   --> A               I+R
     freq (   6-   6) =         24.5  [cm-1]   --> A               I+R
     freq (   7-   7) =         51.7  [cm-1]   --> A               I+R
     freq (   8-   8) =        124.1  [cm-1]   --> A               I+R
     freq (   9-   9) =        125.9  [cm-1]   --> A               I+R
     freq (  10-  10) =        151.0  [cm-1]   --> A               I+R
     freq (  11-  11) =        152.6  [cm-1]   --> A               I+R
     freq (  12-  12) =        180.9  [cm-1]   --> A               I+R
     freq (  13-  13) =        181.2  [cm-1]   --> A               I+R
     freq (  14-  14) =        204.5  [cm-1]   --> A               I+R
     freq (  15-  15) =        207.1  [cm-1]   --> A               I+R
     freq (  16-  16) =        208.7  [cm-1]   --> A               I+R
     freq (  17-  17) =        227.6  [cm-1]   --> A               I+R
     freq (  18-  18) =        228.9  [cm-1]   --> A               I+R
     freq (  19-  19) =        254.3  [cm-1]   --> A               I+R
     freq (  20-  20) =        283.1  [cm-1]   --> A               I+R
     freq (  21-  21) =        284.2  [cm-1]   --> A               I+R
     freq (  22-  22) =        386.3  [cm-1]   --> A               I+R
     freq (  23-  23) =        386.8  [cm-1]   --> A               I+R
     freq (  24-  24) =        442.6  [cm-1]   --> A               I+R
     freq (  25-  25) =        442.9  [cm-1]   --> A               I+R
     freq (  26-  26) =        526.8  [cm-1]   --> A               I+R
     freq (  27-  27) =        527.1  [cm-1]   --> A               I+R
     freq (  28-  28) =        542.6  [cm-1]   --> A               I+R
     freq (  29-  29) =        543.0  [cm-1]   --> A               I+R
     freq (  30-  30) =        544.6  [cm-1]   --> A               I+R
     freq (  31-  31) =        614.8  [cm-1]   --> A               I+R
     freq (  32-  32) =        990.8  [cm-1]   --> A               I+R
     freq (  33-  33) =        998.6  [cm-1]   --> A               I+R
     freq (  34-  34) =       1039.5  [cm-1]   --> A               I+R
     freq (  35-  35) =       1039.7  [cm-1]   --> A               I+R
     freq (  36-  36) =       1046.7  [cm-1]   --> A               I+R
     freq (  37-  37) =       1047.0  [cm-1]   --> A               I+R
     freq (  38-  38) =       1128.1  [cm-1]   --> A               I+R
     freq (  39-  39) =       1132.3  [cm-1]   --> A               I+R

     PHONON       :      7h33m CPU      7h42m WALL

     INITIALIZATION: 
     phq_setup    :      0.20s CPU      0.22s WALL (       1 calls)
     phq_init     :    106.34s CPU    109.40s WALL (       1 calls)

     phq_init     :    106.34s CPU    109.40s WALL (       1 calls)
     set_drhoc    :      1.06s CPU      1.06s WALL (       1 calls)
     init_vloc    :      0.94s CPU      0.94s WALL (       1 calls)
     init_us_1    :      0.17s CPU      0.17s WALL (       1 calls)
     newd         :      0.27s CPU      0.32s WALL (       1 calls)
     drho         :    101.26s CPU    104.31s WALL (       1 calls)
     cmpt_qdipol  :      0.00s CPU      0.00s WALL (       1 calls)

     DIELECTRIC CONSTANT AND EFFECTIVE CHARGES:
     solve_e      :   1077.61s CPU   1104.53s WALL (       1 calls)
     dielec       :      0.04s CPU      0.11s WALL (       1 calls)
     zstar_eu     :   1317.40s CPU   1328.69s WALL (       1 calls)

     DYNAMICAL MATRIX:
     phqscf       :  24708.52s CPU  25214.41s WALL (       1 calls)
     dynmatrix    :      0.01s CPU      0.01s WALL (       1 calls)

     phqscf       :  24708.52s CPU  25214.41s WALL (       1 calls)
     solve_linter :  24622.67s CPU  25127.16s WALL (      39 calls)
     drhodv       :     85.70s CPU     86.38s WALL (      39 calls)



     phqscf       :  24708.52s CPU  25214.41s WALL (       1 calls)
     solve_linter :  24622.67s CPU  25127.16s WALL (      39 calls)

     solve_linter :  24622.67s CPU  25127.16s WALL (      39 calls)
     dvqpsi_us    :    355.89s CPU    363.53s WALL (    2808 calls)
     ortho        :    397.90s CPU    399.17s WALL (   10476 calls)
     cgsolve      :  23424.90s CPU  23886.83s WALL (   10476 calls)
     incdrhoscf   :    509.06s CPU    534.37s WALL (   10584 calls)
     addusddens   :    120.88s CPU    121.09s WALL (     321 calls)
     vpsifft      :    270.70s CPU    290.82s WALL (    8748 calls)
     dv_of_drho   :     15.69s CPU     16.07s WALL (     294 calls)
     mix_pot      :      2.06s CPU      5.47s WALL (     285 calls)
     psymdvscf    :     19.79s CPU     20.64s WALL (     282 calls)
     newdq        :     97.35s CPU     97.40s WALL (     285 calls)
     adddvscf     :    176.33s CPU    176.59s WALL (    9072 calls)
     drhodvus     :      0.61s CPU      1.20s WALL (      39 calls)

     dvqpsi_us    :    355.89s CPU    363.53s WALL (    2808 calls)
     dvqpsi_us_on :    241.18s CPU    241.30s WALL (    2808 calls)

     cgsolve      :  23424.90s CPU  23886.83s WALL (   10476 calls)
     ch_psi       :  23125.80s CPU  23585.28s WALL (  278830 calls)

     ch_psi       :  23125.80s CPU  23585.28s WALL (  278830 calls)
     h_psi        :  12299.78s CPU  12735.19s WALL (  278830 calls)
     last         :   7771.08s CPU   7793.39s WALL (  278830 calls)

     h_psi        :  12299.78s CPU  12735.19s WALL (  278830 calls)
     add_vuspsi   :   2994.45s CPU   2996.13s WALL (  278830 calls)

     incdrhoscf   :    509.06s CPU    534.37s WALL (   10584 calls)
     addusdbec    :    182.44s CPU    183.46s WALL (   11988 calls)

     drhodvus     :      0.61s CPU      1.20s WALL (      39 calls)

      General routines
     calbec       :   6944.44s CPU   6986.25s WALL (  619580 calls)
     fft          :     27.48s CPU     28.45s WALL (    7708 calls)
     ffts         :     10.99s CPU     11.44s WALL (    4996 calls)
     fftw         :   6113.26s CPU   6516.08s WALL (19803464 calls)
     davcio       :      8.34s CPU     24.18s WALL (   59079 calls)
     write_rec    :      0.43s CPU      2.87s WALL (     324 calls)


     PHONON       :      7h33m CPU      7h42m WALL


   This run was terminated on:   6:54:26   3Jul2026            

=------------------------------------------------------------------------------=
   JOB DONE.
=------------------------------------------------------------------------------=
