
     Program PHONON v.6.7MaX starts on  4Jul2026 at 22: 6: 3 

     This program is part of the open-source Quantum ESPRESSO suite
     for quantum simulation of materials; please cite
         "P. Giannozzi et al., J. Phys.:Condens. Matter 21 395502 (2009);
         "P. Giannozzi et al., J. Phys.:Condens. Matter 29 465901 (2017);
          URL http://www.quantum-espresso.org", 
     in publications or presentations arising from this work. More details at
     http://www.quantum-espresso.org/quote

     Parallel version (MPI), running on     8 processors

     MPI processes distributed on     1 nodes
     R & G space division:  proc/nbgrp/npool/nimage =       8
     Waiting for input...
     Reading input from standard input
      Title line not specified: using 'default'.

     Reading xml data from directory:

     ./out2/Ca3O8P2.save/
     file Ca.pbe-spn-kjpaw_psl.1.0.0.UPF: wavefunction(s)  3S renormalized
     file P.pbe-n-kjpaw_psl.1.0.0.UPF: wavefunction(s)  3S 3P renormalized
     file O.pbe-n-kjpaw_psl.0.1.UPF: wavefunction(s)  2P renormalized

     IMPORTANT: XC functional enforced from input :
     Exchange-correlation= PBE
                           (   1   4   3   4   0   0   0)
     Any further DFT definition will be discarded
     Please, verify this is what you really want


     Parallelization info
     --------------------
     sticks:   dense  smooth     PW     G-vecs:    dense   smooth      PW
     Min         474     237     68                16734     5908     928
     Max         475     238     69                16737     5910     929
     Sum        3799    1897    549               133887    47273    7427


     Check: negative core charge=   -0.000003
     Reading collected, re-writing distributed wavefunctions

     Calculation of q =    0.0000000   0.0000000   0.0000000

     default                                                                    

     bravais-lattice index     =            0
     lattice parameter (alat)  =      13.0318  a.u.
     unit-cell volume          =     990.2235 (a.u.)^3
     number of atoms/cell      =           13
     number of atomic types    =            3
     kinetic-energy cut-off    =      50.0000  Ry
     charge density cut-off    =     400.0000  Ry
     convergence threshold     =      1.0E-12
     beta                      =       0.7000
     number of iterations used =            4
     Exchange-correlation= PBE
                           (   1   4   3   4   0   0   0)


     celldm(1)=   13.03184  celldm(2)=    0.00000  celldm(3)=    0.00000
     celldm(4)=    0.00000  celldm(5)=    0.00000  celldm(6)=    0.00000

     crystal axes: (cart. coord. in units of alat)
               a(1) = (  0.7015  0.0001  0.7127 )  
               a(2) = (  0.2919  0.6379  0.7127 )  
               a(3) = (  0.0001  0.0001  1.0000 )  

     reciprocal axes: (cart. coord. in units 2 pi/alat)
               b(1) = (  1.4256 -0.6524 -0.0001 )  
               b(2) = ( -0.0000  1.5678 -0.0001 )  
               b(3) = ( -1.0159 -0.6524  1.0001 )  


     Atoms inside the unit cell: 

     Cartesian axes

     site n.  atom      mass           positions (alat units)
        1     Ca  40.0780   tau(    1) = (    0.00000    0.00000    0.00000  )
        2     Ca  40.0780   tau(    2) = (    0.20181    0.12959    0.49263  )
        3     Ca  40.0780   tau(    3) = (    0.79173    0.50840    1.93267  )
        4     P   30.9738   tau(    4) = (    0.40240    0.25840    0.98230  )
        5     P   30.9738   tau(    5) = (    0.59113    0.37959    1.44300  )
        6     O   15.9990   tau(    6) = (    0.72243    0.46390    1.28334  )
        7     O   15.9990   tau(    7) = (    0.58226    0.15757    1.42134  )
        8     O   15.9990   tau(    8) = (    0.38555    0.46390    1.42134  )
        9     O   15.9990   tau(    9) = (    0.60798    0.17409    1.00397  )
       10     O   15.9990   tau(   10) = (    0.27111    0.17409    1.14197  )
       11     O   15.9990   tau(   11) = (    0.32135    0.20635    0.78444  )
       12     O   15.9990   tau(   12) = (    0.67219    0.43164    1.64087  )
       13     O   15.9990   tau(   13) = (    0.41128    0.48042    1.00397  )

     Computing dynamical matrix for 
                    q = (   0.0000000   0.0000000   0.0000000 )

      2 Sym.Ops. (with q -> -q+G )


     G cutoff = 1720.7248  (  16737 G-vectors)     FFT grid: ( 90, 90, 90)
     G cutoff =  860.3624  (   5909 G-vectors)  smooth grid: ( 60, 60, 60)
     number of k points=    36
                       cart. coord. in units 2pi/alat
        k(    1) = (   0.0000000   0.0000000   0.0000000), wk =   0.0312500
        k(    2) = (  -0.2539856  -0.1630931   0.2500282), wk =   0.0625000
        k(    3) = (   0.5079711   0.3261861  -0.5000564), wk =   0.0312500
        k(    4) = (  -0.0000081   0.3919465  -0.0000198), wk =   0.0625000
        k(    5) = (  -0.2539937   0.2288535   0.2500084), wk =   0.0625000
        k(    6) = (   0.5079630   0.7181327  -0.5000762), wk =   0.0625000
        k(    7) = (   0.2539775   0.5550396  -0.2500480), wk =   0.0625000
        k(    8) = (   0.0000162  -0.7838931   0.0000396), wk =   0.0312500
        k(    9) = (  -0.2539693  -0.9469861   0.2500678), wk =   0.0625000
        k(   10) = (   0.5079874  -0.4577070  -0.5000168), wk =   0.0312500
        k(   11) = (   0.3564026  -0.1630931  -0.0000198), wk =   0.0625000
        k(   12) = (   0.1024170  -0.3261862   0.2500084), wk =   0.0625000
        k(   13) = (   0.8643737   0.1630930  -0.5000763), wk =   0.0625000
        k(   14) = (   0.6103882  -0.0000000  -0.2500480), wk =   0.0625000
        k(   15) = (   0.3563945   0.2288534  -0.0000396), wk =   0.0625000
        k(   16) = (   0.1024089   0.0657604   0.2499886), wk =   0.0625000
        k(   17) = (   0.8643656   0.5550396  -0.5000961), wk =   0.0625000
        k(   18) = (   0.6103801   0.3919465  -0.2500679), wk =   0.0625000
        k(   19) = (   0.3564188  -0.9469862   0.0000198), wk =   0.0625000
        k(   20) = (   0.1024333  -1.1100793   0.2500480), wk =   0.0625000
        k(   21) = (   0.8643900  -0.6208001  -0.5000366), wk =   0.0625000
        k(   22) = (   0.6104044  -0.7838931  -0.2500084), wk =   0.0625000
        k(   23) = (   0.3564107  -0.5550396  -0.0000000), wk =   0.0625000
        k(   24) = (   0.1024252  -0.7181327   0.2500282), wk =   0.0625000
        k(   25) = (   0.8643819  -0.2288535  -0.5000565), wk =   0.0625000
        k(   26) = (   0.6103963  -0.3919466  -0.2500282), wk =   0.0625000
        k(   27) = (  -0.7128052   0.3261862   0.0000397), wk =   0.0312500
        k(   28) = (  -0.9667908   0.1630932   0.2500679), wk =   0.0625000
        k(   29) = (  -0.2048341   0.6523723  -0.5000167), wk =   0.0312500
        k(   30) = (  -0.7128133   0.7181328   0.0000199), wk =   0.0625000
        k(   31) = (  -0.9667989   0.5550397   0.2500481), wk =   0.0625000
        k(   32) = (  -0.2048422   1.0443189  -0.5000365), wk =   0.0625000
        k(   33) = (  -0.4588278   0.8812258  -0.2500083), wk =   0.0625000
        k(   34) = (  -0.7127890  -0.4577069   0.0000793), wk =   0.0312500
        k(   35) = (  -0.9667746  -0.6207999   0.2501075), wk =   0.0625000
        k(   36) = (  -0.2048179  -0.1315207  -0.4999771), wk =   0.0312500

     PseudoPot. # 1 for Ca read from file:
     /data/pseudopotentials/Ca.pbe-spn-kjpaw_psl.1.0.0.UPF
     MD5 check sum: 1e11ab70c77b02a7d7d676f41d47b751
     Pseudo is Projector augmented-wave + core cor, Zval = 10.0
     Generated using &quot;atomic&quot; code by A. Dal Corso  v.6.4.1
     Shape of augmentation charge: PSQ
     Using radial grid of 1169 points,  6 beta functions with: 
                l(1) =   0
                l(2) =   0
                l(3) =   1
                l(4) =   1
                l(5) =   2
                l(6) =   2
     Q(r) pseudized with 0 coefficients 


     PseudoPot. # 2 for P  read from file:
     /data/pseudopotentials/P.pbe-n-kjpaw_psl.1.0.0.UPF
     MD5 check sum: 06b8cad1975795032ee26009bb7624c7
     Pseudo is Projector augmented-wave + core cor, Zval =  5.0
     Generated using &quot;atomic&quot; code by A. Dal Corso  v.6.3
     Shape of augmentation charge: PSQ
     Using radial grid of 1147 points,  6 beta functions with: 
                l(1) =   0
                l(2) =   0
                l(3) =   1
                l(4) =   1
                l(5) =   2
                l(6) =   2
     Q(r) pseudized with 0 coefficients 


     PseudoPot. # 3 for O  read from file:
     /data/pseudopotentials/O.pbe-n-kjpaw_psl.0.1.UPF
     MD5 check sum: 833c495a5d0f9b75bf046115549bffff
     Pseudo is Projector augmented-wave + core cor, Zval =  6.0
     Generated using &quot;atomic&quot; code by A. Dal Corso  v.6.3
     Shape of augmentation charge: BESSEL
     Using radial grid of 1095 points,  4 beta functions with: 
                l(1) =   0
                l(2) =   0
                l(3) =   1
                l(4) =   1
     Q(r) pseudized with 0 coefficients 


     Mode symmetry, C_1 (1)     point group:


     Electric field:
     Dielectric constant
     Born effective charges as d Force / d E


     Atomic displacements:
     There are   39 irreducible representations

     Representation     1      1 modes -  To be done

     Representation     2      1 modes -  To be done

     Representation     3      1 modes -  To be done

     Representation     4      1 modes -  To be done

     Representation     5      1 modes -  To be done

     Representation     6      1 modes -  To be done

     Representation     7      1 modes -  To be done

     Representation     8      1 modes -  To be done

     Representation     9      1 modes -  To be done

     Representation    10      1 modes -  To be done

     Representation    11      1 modes -  To be done

     Representation    12      1 modes -  To be done

     Representation    13      1 modes -  To be done

     Representation    14      1 modes -  To be done

     Representation    15      1 modes -  To be done

     Representation    16      1 modes -  To be done

     Representation    17      1 modes -  To be done

     Representation    18      1 modes -  To be done

     Representation    19      1 modes -  To be done

     Representation    20      1 modes -  To be done

     Representation    21      1 modes -  To be done

     Representation    22      1 modes -  To be done

     Representation    23      1 modes -  To be done

     Representation    24      1 modes -  To be done

     Representation    25      1 modes -  To be done

     Representation    26      1 modes -  To be done

     Representation    27      1 modes -  To be done

     Representation    28      1 modes -  To be done

     Representation    29      1 modes -  To be done

     Representation    30      1 modes -  To be done

     Representation    31      1 modes -  To be done

     Representation    32      1 modes -  To be done

     Representation    33      1 modes -  To be done

     Representation    34      1 modes -  To be done

     Representation    35      1 modes -  To be done

     Representation    36      1 modes -  To be done

     Representation    37      1 modes -  To be done

     Representation    38      1 modes -  To be done

     Representation    39      1 modes -  To be done



     Alpha used in Ewald sum =   2.8000
     PHONON       :   2m44.19s CPU   2m50.75s WALL


     Electric Fields Calculation

      iter #   1 total cpu time :  1242.5 secs   av.it.:  10.9
      thresh= 1.000E-02 alpha_mix =  0.700 |ddv_scf|^2 =  1.251E-08

      iter #   2 total cpu time :  1714.4 secs   av.it.:  23.4
      thresh= 1.118E-05 alpha_mix =  0.700 |ddv_scf|^2 =  1.556E-08

      iter #   3 total cpu time :  2153.4 secs   av.it.:  21.5
      thresh= 1.247E-05 alpha_mix =  0.700 |ddv_scf|^2 =  5.489E-10

      iter #   4 total cpu time :  2602.4 secs   av.it.:  22.0
      thresh= 2.343E-06 alpha_mix =  0.700 |ddv_scf|^2 =  2.277E-11

      iter #   5 total cpu time :  3069.2 secs   av.it.:  23.1
      thresh= 4.772E-07 alpha_mix =  0.700 |ddv_scf|^2 =  9.924E-12

      iter #   6 total cpu time :  3520.7 secs   av.it.:  22.1
      thresh= 3.150E-07 alpha_mix =  0.700 |ddv_scf|^2 =  1.253E-12

      iter #   7 total cpu time :  3964.2 secs   av.it.:  21.8
      thresh= 1.119E-07 alpha_mix =  0.700 |ddv_scf|^2 =  5.938E-14

     End of electric fields calculation

          Dielectric constant in cartesian axis 

          (       3.201769386       0.007136221       0.027124585 )
          (       0.007136218       3.195249999       0.017426304 )
          (       0.027124650       0.017426348       3.256908918 )

          Effective charges (d Force / dE) in cartesian axis

           atom      1   Ca 
      Ex  (        2.58381       -0.01251       -0.04756 )
      Ey  (       -0.01251        2.59526       -0.03054 )
      Ez  (       -0.04756       -0.03054        2.48720 )
           atom      2   Ca 
      Ex  (        2.58856        0.03582        0.13615 )
      Ey  (        0.03582        2.55579        0.08744 )
      Ez  (        0.13616        0.08744        2.86517 )
           atom      3   Ca 
      Ex  (        2.58856        0.03582        0.13615 )
      Ey  (        0.03582        2.55579        0.08744 )
      Ez  (        0.13616        0.08744        2.86517 )
           atom      4   P  
      Ex  (        3.37568        0.01359        0.05164 )
      Ey  (        0.01359        3.36325        0.03316 )
      Ez  (        0.05165        0.03317        3.48060 )
           atom      5   P  
      Ex  (        3.37569        0.01358        0.05164 )
      Ey  (        0.01358        3.36326        0.03317 )
      Ez  (        0.05165        0.03317        3.48060 )
           atom      6   O  
      Ex  (       -1.84706       -0.22651        0.41397 )
      Ey  (       -0.22651       -1.63977        0.26582 )
      Ez  (        0.44990        0.28889       -2.05845 )
           atom      7   O  
      Ex  (       -1.49905       -0.05657       -0.01155 )
      Ey  (       -0.04038       -2.52371       -0.09858 )
      Ez  (       -0.01155       -0.13809       -1.52253 )
           atom      8   O  
      Ex  (       -2.38298        0.36409       -0.09445 )
      Ey  (        0.34790       -1.63977        0.03051 )
      Ez  (       -0.13038        0.04696       -1.52252 )
           atom      9   O  
      Ex  (       -2.38298        0.36409       -0.09445 )
      Ey  (        0.34790       -1.63976        0.03051 )
      Ez  (       -0.13038        0.04696       -1.52252 )
           atom     10   O  
      Ex  (       -1.84706       -0.22651        0.41397 )
      Ey  (       -0.22651       -1.63977        0.26582 )
      Ez  (        0.44990        0.28889       -2.05845 )
           atom     11   O  
      Ex  (       -1.52386       -0.12410       -0.47176 )
      Ey  (       -0.12410       -1.41030       -0.30294 )
      Ez  (       -0.47177       -0.30295       -2.48226 )
           atom     12   O  
      Ex  (       -1.52386       -0.12410       -0.47176 )
      Ey  (       -0.12410       -1.41030       -0.30294 )
      Ez  (       -0.47177       -0.30295       -2.48226 )
           atom     13   O  
      Ex  (       -1.49905       -0.05658       -0.01155 )
      Ey  (       -0.04039       -2.52370       -0.09858 )
      Ez  (       -0.01155       -0.13809       -1.52253 )


     Representation #   1 mode #   1

     Self-consistent Calculation

      iter #   1 total cpu time :  5414.7 secs   av.it.:   8.9
      thresh= 1.000E-02 alpha_mix =  0.700 |ddv_scf|^2 =  4.633E-07

      iter #   2 total cpu time :  5550.2 secs   av.it.:  19.8
      thresh= 6.807E-05 alpha_mix =  0.700 |ddv_scf|^2 =  1.526E-07

      iter #   3 total cpu time :  5685.9 secs   av.it.:  19.8
      thresh= 3.906E-05 alpha_mix =  0.700 |ddv_scf|^2 =  1.351E-08

      iter #   4 total cpu time :  5821.7 secs   av.it.:  19.8
      thresh= 1.162E-05 alpha_mix =  0.700 |ddv_scf|^2 =  1.544E-10

      iter #   5 total cpu time :  5961.2 secs   av.it.:  20.5
      thresh= 1.242E-06 alpha_mix =  0.700 |ddv_scf|^2 =  3.291E-11

      iter #   6 total cpu time :  6099.2 secs   av.it.:  19.9
      thresh= 5.736E-07 alpha_mix =  0.700 |ddv_scf|^2 =  5.026E-12

      iter #   7 total cpu time :  6239.9 secs   av.it.:  20.7
      thresh= 2.242E-07 alpha_mix =  0.700 |ddv_scf|^2 =  1.385E-12

      iter #   8 total cpu time :  6380.1 secs   av.it.:  20.0
      thresh= 1.177E-07 alpha_mix =  0.700 |ddv_scf|^2 =  8.622E-14

     End of self-consistent calculation

     Convergence has been achieved 


     Representation #   2 mode #   2

     Self-consistent Calculation

      iter #   1 total cpu time :  6458.7 secs   av.it.:   8.9
      thresh= 1.000E-02 alpha_mix =  0.700 |ddv_scf|^2 =  4.343E-07

      iter #   2 total cpu time :  6593.4 secs   av.it.:  19.5
      thresh= 6.590E-05 alpha_mix =  0.700 |ddv_scf|^2 =  1.222E-07

      iter #   3 total cpu time :  6727.5 secs   av.it.:  19.6
      thresh= 3.495E-05 alpha_mix =  0.700 |ddv_scf|^2 =  1.099E-08

      iter #   4 total cpu time :  6863.1 secs   av.it.:  19.7
      thresh= 1.048E-05 alpha_mix =  0.700 |ddv_scf|^2 =  1.071E-10

      iter #   5 total cpu time :  7002.5 secs   av.it.:  20.2
      thresh= 1.035E-06 alpha_mix =  0.700 |ddv_scf|^2 =  2.053E-11

      iter #   6 total cpu time :  7141.2 secs   av.it.:  20.2
      thresh= 4.531E-07 alpha_mix =  0.700 |ddv_scf|^2 =  5.162E-12

      iter #   7 total cpu time :  7279.2 secs   av.it.:  20.1
      thresh= 2.272E-07 alpha_mix =  0.700 |ddv_scf|^2 =  1.169E-12

      iter #   8 total cpu time :  7416.2 secs   av.it.:  19.7
      thresh= 1.081E-07 alpha_mix =  0.700 |ddv_scf|^2 =  7.127E-14

     End of self-consistent calculation

     Convergence has been achieved 


     Representation #   3 mode #   3

     Self-consistent Calculation

      iter #   1 total cpu time :  7496.6 secs   av.it.:   9.4
      thresh= 1.000E-02 alpha_mix =  0.700 |ddv_scf|^2 =  7.072E-07

      iter #   2 total cpu time :  7632.5 secs   av.it.:  19.6
      thresh= 8.410E-05 alpha_mix =  0.700 |ddv_scf|^2 =  4.076E-07

      iter #   3 total cpu time :  7764.4 secs   av.it.:  19.2
      thresh= 6.385E-05 alpha_mix =  0.700 |ddv_scf|^2 =  1.953E-08

      iter #   4 total cpu time :  7900.6 secs   av.it.:  19.7
      thresh= 1.398E-05 alpha_mix =  0.700 |ddv_scf|^2 =  4.487E-10

      iter #   5 total cpu time :  8037.9 secs   av.it.:  19.8
      thresh= 2.118E-06 alpha_mix =  0.700 |ddv_scf|^2 =  4.732E-11

      iter #   6 total cpu time :  8175.9 secs   av.it.:  20.1
      thresh= 6.879E-07 alpha_mix =  0.700 |ddv_scf|^2 =  4.038E-12

      iter #   7 total cpu time :  8316.9 secs   av.it.:  20.7
      thresh= 2.010E-07 alpha_mix =  0.700 |ddv_scf|^2 =  1.129E-12

      iter #   8 total cpu time :  8455.2 secs   av.it.:  20.3
      thresh= 1.063E-07 alpha_mix =  0.700 |ddv_scf|^2 =  8.263E-14

     End of self-consistent calculation

     Convergence has been achieved 


     Representation #   4 mode #   4

     Self-consistent Calculation

      iter #   1 total cpu time :  8537.3 secs   av.it.:  10.0
      thresh= 1.000E-02 alpha_mix =  0.700 |ddv_scf|^2 =  5.103E-07

      iter #   2 total cpu time :  8676.5 secs   av.it.:  20.4
      thresh= 7.144E-05 alpha_mix =  0.700 |ddv_scf|^2 =  2.122E-07

      iter #   3 total cpu time :  8814.0 secs   av.it.:  20.0
      thresh= 4.606E-05 alpha_mix =  0.700 |ddv_scf|^2 =  1.653E-08

      iter #   4 total cpu time :  8951.6 secs   av.it.:  20.0
      thresh= 1.286E-05 alpha_mix =  0.700 |ddv_scf|^2 =  2.886E-10

      iter #   5 total cpu time :  9093.7 secs   av.it.:  20.8
      thresh= 1.699E-06 alpha_mix =  0.700 |ddv_scf|^2 =  2.142E-11

      iter #   6 total cpu time :  9239.2 secs   av.it.:  21.3
      thresh= 4.628E-07 alpha_mix =  0.700 |ddv_scf|^2 =  7.834E-12

      iter #   7 total cpu time :  9382.8 secs   av.it.:  20.8
      thresh= 2.799E-07 alpha_mix =  0.700 |ddv_scf|^2 =  1.536E-12

      iter #   8 total cpu time :  9525.2 secs   av.it.:  20.7
      thresh= 1.239E-07 alpha_mix =  0.700 |ddv_scf|^2 =  9.374E-14

     End of self-consistent calculation

     Convergence has been achieved 


     Representation #   5 mode #   5

     Self-consistent Calculation

      iter #   1 total cpu time :  9607.4 secs   av.it.:   9.9
      thresh= 1.000E-02 alpha_mix =  0.700 |ddv_scf|^2 =  4.754E-07

      iter #   2 total cpu time :  9750.2 secs   av.it.:  20.1
      thresh= 6.895E-05 alpha_mix =  0.700 |ddv_scf|^2 =  1.606E-07

      iter #   3 total cpu time :  9887.7 secs   av.it.:  20.0
      thresh= 4.007E-05 alpha_mix =  0.700 |ddv_scf|^2 =  1.062E-08

      iter #   4 total cpu time : 10025.6 secs   av.it.:  20.0
      thresh= 1.030E-05 alpha_mix =  0.700 |ddv_scf|^2 =  2.694E-10

      iter #   5 total cpu time : 10164.9 secs   av.it.:  20.4
      thresh= 1.641E-06 alpha_mix =  0.700 |ddv_scf|^2 =  1.630E-11

      iter #   6 total cpu time : 10309.3 secs   av.it.:  21.2
      thresh= 4.038E-07 alpha_mix =  0.700 |ddv_scf|^2 =  8.316E-12

      iter #   7 total cpu time : 10449.2 secs   av.it.:  20.5
      thresh= 2.884E-07 alpha_mix =  0.700 |ddv_scf|^2 =  1.394E-12

      iter #   8 total cpu time : 10589.1 secs   av.it.:  20.4
      thresh= 1.180E-07 alpha_mix =  0.700 |ddv_scf|^2 =  6.858E-14

     End of self-consistent calculation

     Convergence has been achieved 


     Representation #   6 mode #   6

     Self-consistent Calculation

      iter #   1 total cpu time : 10672.7 secs   av.it.:  10.0
      thresh= 1.000E-02 alpha_mix =  0.700 |ddv_scf|^2 =  8.038E-07

      iter #   2 total cpu time : 10811.4 secs   av.it.:  20.2
      thresh= 8.965E-05 alpha_mix =  0.700 |ddv_scf|^2 =  6.434E-07

      iter #   3 total cpu time : 10945.5 secs   av.it.:  19.6
      thresh= 8.022E-05 alpha_mix =  0.700 |ddv_scf|^2 =  2.468E-08

      iter #   4 total cpu time : 11083.7 secs   av.it.:  20.1
      thresh= 1.571E-05 alpha_mix =  0.700 |ddv_scf|^2 =  6.798E-10

      iter #   5 total cpu time : 11222.4 secs   av.it.:  20.3
      thresh= 2.607E-06 alpha_mix =  0.700 |ddv_scf|^2 =  2.406E-11

      iter #   6 total cpu time : 11365.1 secs   av.it.:  20.9
      thresh= 4.905E-07 alpha_mix =  0.700 |ddv_scf|^2 =  6.657E-12

      iter #   7 total cpu time : 11505.9 secs   av.it.:  20.9
      thresh= 2.580E-07 alpha_mix =  0.700 |ddv_scf|^2 =  1.747E-12

      iter #   8 total cpu time : 11644.4 secs   av.it.:  20.2
      thresh= 1.322E-07 alpha_mix =  0.700 |ddv_scf|^2 =  1.221E-13

     End of self-consistent calculation

     Convergence has been achieved 


     Representation #   7 mode #   7

     Self-consistent Calculation

      iter #   1 total cpu time : 11726.7 secs   av.it.:  10.0
      thresh= 1.000E-02 alpha_mix =  0.700 |ddv_scf|^2 =  5.103E-07

      iter #   2 total cpu time : 11865.6 secs   av.it.:  20.4
      thresh= 7.144E-05 alpha_mix =  0.700 |ddv_scf|^2 =  2.122E-07

      iter #   3 total cpu time : 12003.0 secs   av.it.:  20.0
      thresh= 4.606E-05 alpha_mix =  0.700 |ddv_scf|^2 =  1.653E-08

      iter #   4 total cpu time : 12140.1 secs   av.it.:  20.0
      thresh= 1.286E-05 alpha_mix =  0.700 |ddv_scf|^2 =  2.886E-10

      iter #   5 total cpu time : 12281.2 secs   av.it.:  20.8
      thresh= 1.699E-06 alpha_mix =  0.700 |ddv_scf|^2 =  2.142E-11

      iter #   6 total cpu time : 12424.9 secs   av.it.:  21.3
      thresh= 4.628E-07 alpha_mix =  0.700 |ddv_scf|^2 =  7.834E-12

      iter #   7 total cpu time : 12565.6 secs   av.it.:  20.8
      thresh= 2.799E-07 alpha_mix =  0.700 |ddv_scf|^2 =  1.536E-12

      iter #   8 total cpu time : 12707.0 secs   av.it.:  20.7
      thresh= 1.239E-07 alpha_mix =  0.700 |ddv_scf|^2 =  9.374E-14

     End of self-consistent calculation

     Convergence has been achieved 


     Representation #   8 mode #   8

     Self-consistent Calculation

      iter #   1 total cpu time : 12789.0 secs   av.it.:   9.9
      thresh= 1.000E-02 alpha_mix =  0.700 |ddv_scf|^2 =  4.754E-07

      iter #   2 total cpu time : 12927.6 secs   av.it.:  20.1
      thresh= 6.895E-05 alpha_mix =  0.700 |ddv_scf|^2 =  1.606E-07

      iter #   3 total cpu time : 13064.9 secs   av.it.:  20.0
      thresh= 4.007E-05 alpha_mix =  0.700 |ddv_scf|^2 =  1.062E-08

      iter #   4 total cpu time : 13202.7 secs   av.it.:  20.0
      thresh= 1.030E-05 alpha_mix =  0.700 |ddv_scf|^2 =  2.694E-10

      iter #   5 total cpu time : 13342.8 secs   av.it.:  20.4
      thresh= 1.641E-06 alpha_mix =  0.700 |ddv_scf|^2 =  1.630E-11

      iter #   6 total cpu time : 13487.1 secs   av.it.:  21.2
      thresh= 4.038E-07 alpha_mix =  0.700 |ddv_scf|^2 =  8.316E-12

      iter #   7 total cpu time : 13627.6 secs   av.it.:  20.5
      thresh= 2.884E-07 alpha_mix =  0.700 |ddv_scf|^2 =  1.394E-12

      iter #   8 total cpu time : 13768.9 secs   av.it.:  20.4
      thresh= 1.180E-07 alpha_mix =  0.700 |ddv_scf|^2 =  6.858E-14

     End of self-consistent calculation

     Convergence has been achieved 


     Representation #   9 mode #   9

     Self-consistent Calculation

      iter #   1 total cpu time : 13853.1 secs   av.it.:  10.0
      thresh= 1.000E-02 alpha_mix =  0.700 |ddv_scf|^2 =  8.038E-07

      iter #   2 total cpu time : 13992.8 secs   av.it.:  20.2
      thresh= 8.965E-05 alpha_mix =  0.700 |ddv_scf|^2 =  6.434E-07

      iter #   3 total cpu time : 14129.2 secs   av.it.:  19.6
      thresh= 8.022E-05 alpha_mix =  0.700 |ddv_scf|^2 =  2.468E-08

      iter #   4 total cpu time : 14269.0 secs   av.it.:  20.1
      thresh= 1.571E-05 alpha_mix =  0.700 |ddv_scf|^2 =  6.798E-10

      iter #   5 total cpu time : 14410.1 secs   av.it.:  20.3
      thresh= 2.607E-06 alpha_mix =  0.700 |ddv_scf|^2 =  2.406E-11

      iter #   6 total cpu time : 14555.5 secs   av.it.:  20.9
      thresh= 4.905E-07 alpha_mix =  0.700 |ddv_scf|^2 =  6.657E-12

      iter #   7 total cpu time : 14699.0 secs   av.it.:  20.8
      thresh= 2.580E-07 alpha_mix =  0.700 |ddv_scf|^2 =  1.747E-12

      iter #   8 total cpu time : 14840.2 secs   av.it.:  20.2
      thresh= 1.322E-07 alpha_mix =  0.700 |ddv_scf|^2 =  1.221E-13

     End of self-consistent calculation

     Convergence has been achieved 


     Representation #  10 mode #  10

     Self-consistent Calculation

      iter #   1 total cpu time : 14913.5 secs   av.it.:   8.0
      thresh= 1.000E-02 alpha_mix =  0.700 |ddv_scf|^2 =  5.627E-08

      iter #   2 total cpu time : 15060.7 secs   av.it.:  21.1
      thresh= 2.372E-05 alpha_mix =  0.700 |ddv_scf|^2 =  5.662E-08

      iter #   3 total cpu time : 15200.7 secs   av.it.:  20.1
      thresh= 2.379E-05 alpha_mix =  0.700 |ddv_scf|^2 =  2.566E-09

      iter #   4 total cpu time : 15339.6 secs   av.it.:  20.0
      thresh= 5.065E-06 alpha_mix =  0.700 |ddv_scf|^2 =  4.465E-11

      iter #   5 total cpu time : 15485.0 secs   av.it.:  21.0
      thresh= 6.682E-07 alpha_mix =  0.700 |ddv_scf|^2 =  2.480E-11

      iter #   6 total cpu time : 15624.4 secs   av.it.:  20.0
      thresh= 4.979E-07 alpha_mix =  0.700 |ddv_scf|^2 =  2.045E-12

      iter #   7 total cpu time : 15762.0 secs   av.it.:  20.0
      thresh= 1.430E-07 alpha_mix =  0.700 |ddv_scf|^2 =  1.114E-13

     End of self-consistent calculation

     Convergence has been achieved 


     Representation #  11 mode #  11

     Self-consistent Calculation

      iter #   1 total cpu time : 15834.5 secs   av.it.:   8.0
      thresh= 1.000E-02 alpha_mix =  0.700 |ddv_scf|^2 =  5.045E-08

      iter #   2 total cpu time : 15980.5 secs   av.it.:  21.1
      thresh= 2.246E-05 alpha_mix =  0.700 |ddv_scf|^2 =  4.740E-08

      iter #   3 total cpu time : 16120.5 secs   av.it.:  20.1
      thresh= 2.177E-05 alpha_mix =  0.700 |ddv_scf|^2 =  2.522E-09

      iter #   4 total cpu time : 16258.3 secs   av.it.:  20.0
      thresh= 5.022E-06 alpha_mix =  0.700 |ddv_scf|^2 =  3.919E-11

      iter #   5 total cpu time : 16402.1 secs   av.it.:  20.9
      thresh= 6.260E-07 alpha_mix =  0.700 |ddv_scf|^2 =  1.695E-11

      iter #   6 total cpu time : 16541.4 secs   av.it.:  20.1
      thresh= 4.117E-07 alpha_mix =  0.700 |ddv_scf|^2 =  2.433E-12

      iter #   7 total cpu time : 16677.6 secs   av.it.:  19.7
      thresh= 1.560E-07 alpha_mix =  0.700 |ddv_scf|^2 =  8.188E-14

     End of self-consistent calculation

     Convergence has been achieved 


     Representation #  12 mode #  12

     Self-consistent Calculation

      iter #   1 total cpu time : 16750.2 secs   av.it.:   8.0
      thresh= 1.000E-02 alpha_mix =  0.700 |ddv_scf|^2 =  1.058E-07

      iter #   2 total cpu time : 16893.2 secs   av.it.:  20.7
      thresh= 3.252E-05 alpha_mix =  0.700 |ddv_scf|^2 =  1.347E-07

      iter #   3 total cpu time : 17028.3 secs   av.it.:  19.3
      thresh= 3.670E-05 alpha_mix =  0.700 |ddv_scf|^2 =  3.156E-09

      iter #   4 total cpu time : 17165.5 secs   av.it.:  19.8
      thresh= 5.617E-06 alpha_mix =  0.700 |ddv_scf|^2 =  4.284E-11

      iter #   5 total cpu time : 17309.1 secs   av.it.:  20.9
      thresh= 6.545E-07 alpha_mix =  0.700 |ddv_scf|^2 =  1.214E-11

      iter #   6 total cpu time : 17452.2 secs   av.it.:  20.8
      thresh= 3.484E-07 alpha_mix =  0.700 |ddv_scf|^2 =  3.560E-12

      iter #   7 total cpu time : 17592.8 secs   av.it.:  20.2
      thresh= 1.887E-07 alpha_mix =  0.700 |ddv_scf|^2 =  1.639E-13

     End of self-consistent calculation

     Convergence has been achieved 


     Representation #  13 mode #  13

     Self-consistent Calculation

      iter #   1 total cpu time : 17665.7 secs   av.it.:   8.0
      thresh= 1.000E-02 alpha_mix =  0.700 |ddv_scf|^2 =  5.627E-08

      iter #   2 total cpu time : 17812.2 secs   av.it.:  21.1
      thresh= 2.372E-05 alpha_mix =  0.700 |ddv_scf|^2 =  5.662E-08

      iter #   3 total cpu time : 17951.9 secs   av.it.:  20.1
      thresh= 2.379E-05 alpha_mix =  0.700 |ddv_scf|^2 =  2.566E-09

      iter #   4 total cpu time : 18090.4 secs   av.it.:  20.0
      thresh= 5.065E-06 alpha_mix =  0.700 |ddv_scf|^2 =  4.465E-11

      iter #   5 total cpu time : 18235.3 secs   av.it.:  21.0
      thresh= 6.682E-07 alpha_mix =  0.700 |ddv_scf|^2 =  2.480E-11

      iter #   6 total cpu time : 18374.9 secs   av.it.:  20.0
      thresh= 4.980E-07 alpha_mix =  0.700 |ddv_scf|^2 =  2.045E-12

      iter #   7 total cpu time : 18512.5 secs   av.it.:  20.0
      thresh= 1.430E-07 alpha_mix =  0.700 |ddv_scf|^2 =  1.114E-13

     End of self-consistent calculation

     Convergence has been achieved 


     Representation #  14 mode #  14

     Self-consistent Calculation

      iter #   1 total cpu time : 18584.5 secs   av.it.:   8.0
      thresh= 1.000E-02 alpha_mix =  0.700 |ddv_scf|^2 =  5.045E-08

      iter #   2 total cpu time : 18729.8 secs   av.it.:  21.1
      thresh= 2.246E-05 alpha_mix =  0.700 |ddv_scf|^2 =  4.740E-08

      iter #   3 total cpu time : 18869.2 secs   av.it.:  20.1
      thresh= 2.177E-05 alpha_mix =  0.700 |ddv_scf|^2 =  2.522E-09

      iter #   4 total cpu time : 19007.3 secs   av.it.:  20.0
      thresh= 5.022E-06 alpha_mix =  0.700 |ddv_scf|^2 =  3.918E-11

      iter #   5 total cpu time : 19151.3 secs   av.it.:  20.9
      thresh= 6.260E-07 alpha_mix =  0.700 |ddv_scf|^2 =  1.695E-11

      iter #   6 total cpu time : 19283.8 secs   av.it.:  20.1
      thresh= 4.117E-07 alpha_mix =  0.700 |ddv_scf|^2 =  2.433E-12

      iter #   7 total cpu time : 19416.0 secs   av.it.:  19.7
      thresh= 1.560E-07 alpha_mix =  0.700 |ddv_scf|^2 =  8.188E-14

     End of self-consistent calculation

     Convergence has been achieved 


     Representation #  15 mode #  15

     Self-consistent Calculation

      iter #   1 total cpu time : 19491.4 secs   av.it.:   8.0
      thresh= 1.000E-02 alpha_mix =  0.700 |ddv_scf|^2 =  1.058E-07

      iter #   2 total cpu time : 19637.7 secs   av.it.:  20.7
      thresh= 3.252E-05 alpha_mix =  0.700 |ddv_scf|^2 =  1.347E-07

      iter #   3 total cpu time : 19771.1 secs   av.it.:  19.3
      thresh= 3.670E-05 alpha_mix =  0.700 |ddv_scf|^2 =  3.156E-09

      iter #   4 total cpu time : 19906.0 secs   av.it.:  19.8
      thresh= 5.617E-06 alpha_mix =  0.700 |ddv_scf|^2 =  4.284E-11

      iter #   5 total cpu time : 20047.7 secs   av.it.:  20.9
      thresh= 6.545E-07 alpha_mix =  0.700 |ddv_scf|^2 =  1.214E-11

      iter #   6 total cpu time : 20189.8 secs   av.it.:  20.8
      thresh= 3.484E-07 alpha_mix =  0.700 |ddv_scf|^2 =  3.560E-12

      iter #   7 total cpu time : 20328.6 secs   av.it.:  20.2
      thresh= 1.887E-07 alpha_mix =  0.700 |ddv_scf|^2 =  1.639E-13

     End of self-consistent calculation

     Convergence has been achieved 


     Representation #  16 mode #  16

     Self-consistent Calculation

      iter #   1 total cpu time : 20411.0 secs   av.it.:   9.9
      thresh= 1.000E-02 alpha_mix =  0.700 |ddv_scf|^2 =  2.894E-07

      iter #   2 total cpu time : 20552.1 secs   av.it.:  20.5
      thresh= 5.379E-05 alpha_mix =  0.700 |ddv_scf|^2 =  8.545E-08

      iter #   3 total cpu time : 20689.6 secs   av.it.:  20.0
      thresh= 2.923E-05 alpha_mix =  0.700 |ddv_scf|^2 =  2.963E-09

      iter #   4 total cpu time : 20832.8 secs   av.it.:  21.0
      thresh= 5.444E-06 alpha_mix =  0.700 |ddv_scf|^2 =  9.755E-10

      iter #   5 total cpu time : 20969.2 secs   av.it.:  19.9
      thresh= 3.123E-06 alpha_mix =  0.700 |ddv_scf|^2 =  1.697E-11

      iter #   6 total cpu time : 21109.1 secs   av.it.:  20.7
      thresh= 4.120E-07 alpha_mix =  0.700 |ddv_scf|^2 =  2.388E-12

      iter #   7 total cpu time : 21248.9 secs   av.it.:  20.7
      thresh= 1.545E-07 alpha_mix =  0.700 |ddv_scf|^2 =  3.034E-13

     End of self-consistent calculation

     Convergence has been achieved 


     Representation #  17 mode #  17

     Self-consistent Calculation

      iter #   1 total cpu time : 21330.8 secs   av.it.:   9.9
      thresh= 1.000E-02 alpha_mix =  0.700 |ddv_scf|^2 =  2.545E-07

      iter #   2 total cpu time : 21471.0 secs   av.it.:  20.7
      thresh= 5.045E-05 alpha_mix =  0.700 |ddv_scf|^2 =  5.461E-08

      iter #   3 total cpu time : 21608.7 secs   av.it.:  20.1
      thresh= 2.337E-05 alpha_mix =  0.700 |ddv_scf|^2 =  2.262E-09

      iter #   4 total cpu time : 21750.0 secs   av.it.:  21.0
      thresh= 4.756E-06 alpha_mix =  0.700 |ddv_scf|^2 =  6.290E-10

      iter #   5 total cpu time : 21886.9 secs   av.it.:  20.1
      thresh= 2.508E-06 alpha_mix =  0.700 |ddv_scf|^2 =  1.277E-11

      iter #   6 total cpu time : 22026.3 secs   av.it.:  20.4
      thresh= 3.573E-07 alpha_mix =  0.700 |ddv_scf|^2 =  1.802E-12

      iter #   7 total cpu time : 22166.2 secs   av.it.:  20.8
      thresh= 1.342E-07 alpha_mix =  0.700 |ddv_scf|^2 =  2.542E-13

     End of self-consistent calculation

     Convergence has been achieved 


     Representation #  18 mode #  18

     Self-consistent Calculation

      iter #   1 total cpu time : 22248.8 secs   av.it.:   9.9
      thresh= 1.000E-02 alpha_mix =  0.700 |ddv_scf|^2 =  4.575E-07

      iter #   2 total cpu time : 22390.5 secs   av.it.:  20.6
      thresh= 6.764E-05 alpha_mix =  0.700 |ddv_scf|^2 =  2.990E-07

      iter #   3 total cpu time : 22525.2 secs   av.it.:  19.5
      thresh= 5.468E-05 alpha_mix =  0.700 |ddv_scf|^2 =  1.038E-08

      iter #   4 total cpu time : 22664.9 secs   av.it.:  20.2
      thresh= 1.019E-05 alpha_mix =  0.700 |ddv_scf|^2 =  1.653E-09

      iter #   5 total cpu time : 22802.4 secs   av.it.:  19.8
      thresh= 4.066E-06 alpha_mix =  0.700 |ddv_scf|^2 =  1.225E-11

      iter #   6 total cpu time : 22946.4 secs   av.it.:  20.9
      thresh= 3.500E-07 alpha_mix =  0.700 |ddv_scf|^2 =  2.382E-12

      iter #   7 total cpu time : 23089.7 secs   av.it.:  20.8
      thresh= 1.543E-07 alpha_mix =  0.700 |ddv_scf|^2 =  3.035E-13

     End of self-consistent calculation

     Convergence has been achieved 


     Representation #  19 mode #  19

     Self-consistent Calculation

      iter #   1 total cpu time : 23172.7 secs   av.it.:   9.9
      thresh= 1.000E-02 alpha_mix =  0.700 |ddv_scf|^2 =  2.570E-07

      iter #   2 total cpu time : 23314.4 secs   av.it.:  20.4
      thresh= 5.070E-05 alpha_mix =  0.700 |ddv_scf|^2 =  6.106E-08

      iter #   3 total cpu time : 23452.0 secs   av.it.:  20.0
      thresh= 2.471E-05 alpha_mix =  0.700 |ddv_scf|^2 =  5.780E-09

      iter #   4 total cpu time : 23590.6 secs   av.it.:  20.0
      thresh= 7.603E-06 alpha_mix =  0.700 |ddv_scf|^2 =  6.178E-10

      iter #   5 total cpu time : 23730.9 secs   av.it.:  20.0
      thresh= 2.485E-06 alpha_mix =  0.700 |ddv_scf|^2 =  7.655E-12

      iter #   6 total cpu time : 23875.9 secs   av.it.:  21.0
      thresh= 2.767E-07 alpha_mix =  0.700 |ddv_scf|^2 =  1.382E-12

      iter #   7 total cpu time : 24019.3 secs   av.it.:  20.9
      thresh= 1.176E-07 alpha_mix =  0.700 |ddv_scf|^2 =  3.021E-13

     End of self-consistent calculation

     Convergence has been achieved 


     Representation #  20 mode #  20

     Self-consistent Calculation

      iter #   1 total cpu time : 24102.7 secs   av.it.:   9.9
      thresh= 1.000E-02 alpha_mix =  0.700 |ddv_scf|^2 =  3.539E-07

      iter #   2 total cpu time : 24244.7 secs   av.it.:  20.7
      thresh= 5.949E-05 alpha_mix =  0.700 |ddv_scf|^2 =  1.770E-07

      iter #   3 total cpu time : 24382.8 secs   av.it.:  20.0
      thresh= 4.207E-05 alpha_mix =  0.700 |ddv_scf|^2 =  7.575E-09

      iter #   4 total cpu time : 24522.4 secs   av.it.:  20.0
      thresh= 8.703E-06 alpha_mix =  0.700 |ddv_scf|^2 =  1.196E-09

      iter #   5 total cpu time : 24659.6 secs   av.it.:  19.9
      thresh= 3.458E-06 alpha_mix =  0.700 |ddv_scf|^2 =  2.521E-11

      iter #   6 total cpu time : 24801.9 secs   av.it.:  20.8
      thresh= 5.021E-07 alpha_mix =  0.700 |ddv_scf|^2 =  3.908E-12

      iter #   7 total cpu time : 24942.8 secs   av.it.:  20.5
      thresh= 1.977E-07 alpha_mix =  0.700 |ddv_scf|^2 =  3.164E-13

     End of self-consistent calculation

     Convergence has been achieved 


     Representation #  21 mode #  21

     Self-consistent Calculation

      iter #   1 total cpu time : 25025.2 secs   av.it.:  10.0
      thresh= 1.000E-02 alpha_mix =  0.700 |ddv_scf|^2 =  3.901E-07

      iter #   2 total cpu time : 25165.8 secs   av.it.:  20.5
      thresh= 6.246E-05 alpha_mix =  0.700 |ddv_scf|^2 =  2.003E-07

      iter #   3 total cpu time : 25300.2 secs   av.it.:  19.6
      thresh= 4.475E-05 alpha_mix =  0.700 |ddv_scf|^2 =  1.007E-08

      iter #   4 total cpu time : 25439.3 secs   av.it.:  20.0
      thresh= 1.003E-05 alpha_mix =  0.700 |ddv_scf|^2 =  1.309E-09

      iter #   5 total cpu time : 25577.0 secs   av.it.:  19.9
      thresh= 3.617E-06 alpha_mix =  0.700 |ddv_scf|^2 =  8.321E-12

      iter #   6 total cpu time : 25720.3 secs   av.it.:  21.0
      thresh= 2.885E-07 alpha_mix =  0.700 |ddv_scf|^2 =  1.385E-12

      iter #   7 total cpu time : 25862.2 secs   av.it.:  20.8
      thresh= 1.177E-07 alpha_mix =  0.700 |ddv_scf|^2 =  2.444E-13

     End of self-consistent calculation

     Convergence has been achieved 


     Representation #  22 mode #  22

     Self-consistent Calculation

      iter #   1 total cpu time : 25946.1 secs   av.it.:  10.0
      thresh= 1.000E-02 alpha_mix =  0.700 |ddv_scf|^2 =  3.564E-07

      iter #   2 total cpu time : 26088.7 secs   av.it.:  20.8
      thresh= 5.970E-05 alpha_mix =  0.700 |ddv_scf|^2 =  1.835E-07

      iter #   3 total cpu time : 26226.6 secs   av.it.:  20.0
      thresh= 4.284E-05 alpha_mix =  0.700 |ddv_scf|^2 =  8.523E-09

      iter #   4 total cpu time : 26365.8 secs   av.it.:  20.1
      thresh= 9.232E-06 alpha_mix =  0.700 |ddv_scf|^2 =  1.238E-09

      iter #   5 total cpu time : 26503.1 secs   av.it.:  19.9
      thresh= 3.518E-06 alpha_mix =  0.700 |ddv_scf|^2 =  2.164E-11

      iter #   6 total cpu time : 26646.2 secs   av.it.:  21.0
      thresh= 4.652E-07 alpha_mix =  0.700 |ddv_scf|^2 =  3.681E-12

      iter #   7 total cpu time : 26787.7 secs   av.it.:  20.8
      thresh= 1.919E-07 alpha_mix =  0.700 |ddv_scf|^2 =  3.050E-13

     End of self-consistent calculation

     Convergence has been achieved 


     Representation #  23 mode #  23

     Self-consistent Calculation

      iter #   1 total cpu time : 26870.3 secs   av.it.:   9.9
      thresh= 1.000E-02 alpha_mix =  0.700 |ddv_scf|^2 =  2.545E-07

      iter #   2 total cpu time : 27010.5 secs   av.it.:  20.7
      thresh= 5.045E-05 alpha_mix =  0.700 |ddv_scf|^2 =  5.461E-08

      iter #   3 total cpu time : 27148.8 secs   av.it.:  20.1
      thresh= 2.337E-05 alpha_mix =  0.700 |ddv_scf|^2 =  2.263E-09

      iter #   4 total cpu time : 27292.8 secs   av.it.:  21.0
      thresh= 4.757E-06 alpha_mix =  0.700 |ddv_scf|^2 =  6.293E-10

      iter #   5 total cpu time : 27430.2 secs   av.it.:  20.1
      thresh= 2.509E-06 alpha_mix =  0.700 |ddv_scf|^2 =  1.275E-11

      iter #   6 total cpu time : 27569.7 secs   av.it.:  20.4
      thresh= 3.571E-07 alpha_mix =  0.700 |ddv_scf|^2 =  1.794E-12

      iter #   7 total cpu time : 27710.9 secs   av.it.:  20.8
      thresh= 1.339E-07 alpha_mix =  0.700 |ddv_scf|^2 =  2.518E-13

     End of self-consistent calculation

     Convergence has been achieved 


     Representation #  24 mode #  24

     Self-consistent Calculation

      iter #   1 total cpu time : 27793.0 secs   av.it.:  10.0
      thresh= 1.000E-02 alpha_mix =  0.700 |ddv_scf|^2 =  3.901E-07

      iter #   2 total cpu time : 27933.4 secs   av.it.:  20.5
      thresh= 6.246E-05 alpha_mix =  0.700 |ddv_scf|^2 =  2.003E-07

      iter #   3 total cpu time : 28067.2 secs   av.it.:  19.6
      thresh= 4.475E-05 alpha_mix =  0.700 |ddv_scf|^2 =  1.007E-08

      iter #   4 total cpu time : 28204.3 secs   av.it.:  20.0
      thresh= 1.003E-05 alpha_mix =  0.700 |ddv_scf|^2 =  1.309E-09

      iter #   5 total cpu time : 28340.9 secs   av.it.:  19.9
      thresh= 3.617E-06 alpha_mix =  0.700 |ddv_scf|^2 =  8.322E-12

      iter #   6 total cpu time : 28482.6 secs   av.it.:  21.0
      thresh= 2.885E-07 alpha_mix =  0.700 |ddv_scf|^2 =  1.385E-12

      iter #   7 total cpu time : 28623.8 secs   av.it.:  20.8
      thresh= 1.177E-07 alpha_mix =  0.700 |ddv_scf|^2 =  2.446E-13

     End of self-consistent calculation

     Convergence has been achieved 


     Representation #  25 mode #  25

     Self-consistent Calculation

      iter #   1 total cpu time : 28706.8 secs   av.it.:  10.0
      thresh= 1.000E-02 alpha_mix =  0.700 |ddv_scf|^2 =  3.564E-07

      iter #   2 total cpu time : 28848.0 secs   av.it.:  20.8
      thresh= 5.970E-05 alpha_mix =  0.700 |ddv_scf|^2 =  1.835E-07

      iter #   3 total cpu time : 28984.3 secs   av.it.:  20.0
      thresh= 4.284E-05 alpha_mix =  0.700 |ddv_scf|^2 =  8.523E-09

      iter #   4 total cpu time : 29123.2 secs   av.it.:  20.1
      thresh= 9.232E-06 alpha_mix =  0.700 |ddv_scf|^2 =  1.238E-09

      iter #   5 total cpu time : 29260.7 secs   av.it.:  19.9
      thresh= 3.518E-06 alpha_mix =  0.700 |ddv_scf|^2 =  2.164E-11

      iter #   6 total cpu time : 29403.2 secs   av.it.:  21.0
      thresh= 4.652E-07 alpha_mix =  0.700 |ddv_scf|^2 =  3.682E-12

      iter #   7 total cpu time : 29543.8 secs   av.it.:  20.8
      thresh= 1.919E-07 alpha_mix =  0.700 |ddv_scf|^2 =  3.050E-13

     End of self-consistent calculation

     Convergence has been achieved 


     Representation #  26 mode #  26

     Self-consistent Calculation

      iter #   1 total cpu time : 29626.1 secs   av.it.:   9.9
      thresh= 1.000E-02 alpha_mix =  0.700 |ddv_scf|^2 =  2.545E-07

      iter #   2 total cpu time : 29768.7 secs   av.it.:  20.7
      thresh= 5.045E-05 alpha_mix =  0.700 |ddv_scf|^2 =  5.461E-08

      iter #   3 total cpu time : 29909.7 secs   av.it.:  20.1
      thresh= 2.337E-05 alpha_mix =  0.700 |ddv_scf|^2 =  2.263E-09

      iter #   4 total cpu time : 30056.4 secs   av.it.:  21.0
      thresh= 4.757E-06 alpha_mix =  0.700 |ddv_scf|^2 =  6.293E-10

      iter #   5 total cpu time : 30194.3 secs   av.it.:  20.1
      thresh= 2.509E-06 alpha_mix =  0.700 |ddv_scf|^2 =  1.275E-11

      iter #   6 total cpu time : 30334.6 secs   av.it.:  20.4
      thresh= 3.571E-07 alpha_mix =  0.700 |ddv_scf|^2 =  1.794E-12

      iter #   7 total cpu time : 30476.3 secs   av.it.:  20.8
      thresh= 1.339E-07 alpha_mix =  0.700 |ddv_scf|^2 =  2.518E-13

     End of self-consistent calculation

     Convergence has been achieved 


     Representation #  27 mode #  27

     Self-consistent Calculation

      iter #   1 total cpu time : 30558.1 secs   av.it.:  10.0
      thresh= 1.000E-02 alpha_mix =  0.700 |ddv_scf|^2 =  3.901E-07

      iter #   2 total cpu time : 30697.9 secs   av.it.:  20.5
      thresh= 6.246E-05 alpha_mix =  0.700 |ddv_scf|^2 =  2.003E-07

      iter #   3 total cpu time : 30832.1 secs   av.it.:  19.6
      thresh= 4.475E-05 alpha_mix =  0.700 |ddv_scf|^2 =  1.007E-08

      iter #   4 total cpu time : 30970.3 secs   av.it.:  20.0
      thresh= 1.003E-05 alpha_mix =  0.700 |ddv_scf|^2 =  1.309E-09

      iter #   5 total cpu time : 31106.7 secs   av.it.:  19.9
      thresh= 3.617E-06 alpha_mix =  0.700 |ddv_scf|^2 =  8.322E-12

      iter #   6 total cpu time : 31248.6 secs   av.it.:  21.0
      thresh= 2.885E-07 alpha_mix =  0.700 |ddv_scf|^2 =  1.385E-12

      iter #   7 total cpu time : 31390.0 secs   av.it.:  20.8
      thresh= 1.177E-07 alpha_mix =  0.700 |ddv_scf|^2 =  2.446E-13

     End of self-consistent calculation

     Convergence has been achieved 


     Representation #  28 mode #  28

     Self-consistent Calculation

      iter #   1 total cpu time : 31472.1 secs   av.it.:   9.9
      thresh= 1.000E-02 alpha_mix =  0.700 |ddv_scf|^2 =  2.894E-07

      iter #   2 total cpu time : 31613.9 secs   av.it.:  20.5
      thresh= 5.379E-05 alpha_mix =  0.700 |ddv_scf|^2 =  8.545E-08

      iter #   3 total cpu time : 31753.8 secs   av.it.:  20.0
      thresh= 2.923E-05 alpha_mix =  0.700 |ddv_scf|^2 =  2.963E-09

      iter #   4 total cpu time : 31898.5 secs   av.it.:  21.0
      thresh= 5.444E-06 alpha_mix =  0.700 |ddv_scf|^2 =  9.755E-10

      iter #   5 total cpu time : 32037.3 secs   av.it.:  19.9
      thresh= 3.123E-06 alpha_mix =  0.700 |ddv_scf|^2 =  1.697E-11

      iter #   6 total cpu time : 32179.2 secs   av.it.:  20.7
      thresh= 4.120E-07 alpha_mix =  0.700 |ddv_scf|^2 =  2.388E-12

      iter #   7 total cpu time : 32322.2 secs   av.it.:  20.7
      thresh= 1.545E-07 alpha_mix =  0.700 |ddv_scf|^2 =  3.034E-13

     End of self-consistent calculation

     Convergence has been achieved 


     Representation #  29 mode #  29

     Self-consistent Calculation

      iter #   1 total cpu time : 32405.8 secs   av.it.:   9.9
      thresh= 1.000E-02 alpha_mix =  0.700 |ddv_scf|^2 =  2.545E-07

      iter #   2 total cpu time : 32549.4 secs   av.it.:  20.7
      thresh= 5.045E-05 alpha_mix =  0.700 |ddv_scf|^2 =  5.461E-08

      iter #   3 total cpu time : 32690.2 secs   av.it.:  20.1
      thresh= 2.337E-05 alpha_mix =  0.700 |ddv_scf|^2 =  2.262E-09

      iter #   4 total cpu time : 32835.3 secs   av.it.:  21.0
      thresh= 4.756E-06 alpha_mix =  0.700 |ddv_scf|^2 =  6.290E-10

      iter #   5 total cpu time : 32974.6 secs   av.it.:  20.1
      thresh= 2.508E-06 alpha_mix =  0.700 |ddv_scf|^2 =  1.277E-11

      iter #   6 total cpu time : 33116.3 secs   av.it.:  20.4
      thresh= 3.573E-07 alpha_mix =  0.700 |ddv_scf|^2 =  1.802E-12

      iter #   7 total cpu time : 33259.9 secs   av.it.:  20.8
      thresh= 1.342E-07 alpha_mix =  0.700 |ddv_scf|^2 =  2.542E-13

     End of self-consistent calculation

     Convergence has been achieved 


     Representation #  30 mode #  30

     Self-consistent Calculation

      iter #   1 total cpu time : 33343.9 secs   av.it.:   9.9
      thresh= 1.000E-02 alpha_mix =  0.700 |ddv_scf|^2 =  4.575E-07

      iter #   2 total cpu time : 33485.6 secs   av.it.:  20.6
      thresh= 6.764E-05 alpha_mix =  0.700 |ddv_scf|^2 =  2.990E-07

      iter #   3 total cpu time : 33620.4 secs   av.it.:  19.5
      thresh= 5.468E-05 alpha_mix =  0.700 |ddv_scf|^2 =  1.038E-08

      iter #   4 total cpu time : 33759.6 secs   av.it.:  20.2
      thresh= 1.019E-05 alpha_mix =  0.700 |ddv_scf|^2 =  1.653E-09

      iter #   5 total cpu time : 33896.8 secs   av.it.:  19.8
      thresh= 4.066E-06 alpha_mix =  0.700 |ddv_scf|^2 =  1.225E-11

      iter #   6 total cpu time : 34040.5 secs   av.it.:  20.9
      thresh= 3.500E-07 alpha_mix =  0.700 |ddv_scf|^2 =  2.382E-12

      iter #   7 total cpu time : 34184.2 secs   av.it.:  20.9
      thresh= 1.543E-07 alpha_mix =  0.700 |ddv_scf|^2 =  3.035E-13

     End of self-consistent calculation

     Convergence has been achieved 


     Representation #  31 mode #  31

     Self-consistent Calculation

      iter #   1 total cpu time : 34266.2 secs   av.it.:   9.2
      thresh= 1.000E-02 alpha_mix =  0.700 |ddv_scf|^2 =  2.570E-07

      iter #   2 total cpu time : 34408.6 secs   av.it.:  20.6
      thresh= 5.070E-05 alpha_mix =  0.700 |ddv_scf|^2 =  6.581E-08

      iter #   3 total cpu time : 34547.7 secs   av.it.:  20.1
      thresh= 2.565E-05 alpha_mix =  0.700 |ddv_scf|^2 =  5.710E-09

      iter #   4 total cpu time : 34687.9 secs   av.it.:  20.1
      thresh= 7.557E-06 alpha_mix =  0.700 |ddv_scf|^2 =  7.248E-10

      iter #   5 total cpu time : 34827.7 secs   av.it.:  20.0
      thresh= 2.692E-06 alpha_mix =  0.700 |ddv_scf|^2 =  1.264E-11

      iter #   6 total cpu time : 34968.8 secs   av.it.:  20.5
      thresh= 3.556E-07 alpha_mix =  0.700 |ddv_scf|^2 =  1.097E-12

      iter #   7 total cpu time : 35113.1 secs   av.it.:  21.0
      thresh= 1.047E-07 alpha_mix =  0.700 |ddv_scf|^2 =  3.221E-13

     End of self-consistent calculation

     Convergence has been achieved 


     Representation #  32 mode #  32

     Self-consistent Calculation

      iter #   1 total cpu time : 35192.4 secs   av.it.:   9.0
      thresh= 1.000E-02 alpha_mix =  0.700 |ddv_scf|^2 =  2.297E-07

      iter #   2 total cpu time : 35333.4 secs   av.it.:  20.3
      thresh= 4.793E-05 alpha_mix =  0.700 |ddv_scf|^2 =  3.984E-08

      iter #   3 total cpu time : 35473.6 secs   av.it.:  20.2
      thresh= 1.996E-05 alpha_mix =  0.700 |ddv_scf|^2 =  3.995E-09

      iter #   4 total cpu time : 35613.4 secs   av.it.:  20.2
      thresh= 6.321E-06 alpha_mix =  0.700 |ddv_scf|^2 =  5.090E-10

      iter #   5 total cpu time : 35751.8 secs   av.it.:  19.9
      thresh= 2.256E-06 alpha_mix =  0.700 |ddv_scf|^2 =  1.041E-11

      iter #   6 total cpu time : 35893.6 secs   av.it.:  20.5
      thresh= 3.226E-07 alpha_mix =  0.700 |ddv_scf|^2 =  1.205E-12

      iter #   7 total cpu time : 36038.6 secs   av.it.:  20.9
      thresh= 1.098E-07 alpha_mix =  0.700 |ddv_scf|^2 =  3.315E-13

     End of self-consistent calculation

     Convergence has been achieved 


     Representation #  33 mode #  33

     Self-consistent Calculation

      iter #   1 total cpu time : 36123.0 secs   av.it.:   9.9
      thresh= 1.000E-02 alpha_mix =  0.700 |ddv_scf|^2 =  4.889E-07

      iter #   2 total cpu time : 36265.3 secs   av.it.:  20.4
      thresh= 6.992E-05 alpha_mix =  0.700 |ddv_scf|^2 =  2.863E-07

      iter #   3 total cpu time : 36401.2 secs   av.it.:  19.5
      thresh= 5.351E-05 alpha_mix =  0.700 |ddv_scf|^2 =  6.777E-09

      iter #   4 total cpu time : 36543.4 secs   av.it.:  20.4
      thresh= 8.232E-06 alpha_mix =  0.700 |ddv_scf|^2 =  1.895E-09

      iter #   5 total cpu time : 36680.1 secs   av.it.:  19.6
      thresh= 4.353E-06 alpha_mix =  0.700 |ddv_scf|^2 =  1.058E-11

      iter #   6 total cpu time : 36822.8 secs   av.it.:  20.8
      thresh= 3.253E-07 alpha_mix =  0.700 |ddv_scf|^2 =  1.444E-12

      iter #   7 total cpu time : 36965.9 secs   av.it.:  20.9
      thresh= 1.202E-07 alpha_mix =  0.700 |ddv_scf|^2 =  1.894E-13

     End of self-consistent calculation

     Convergence has been achieved 


     Representation #  34 mode #  34

     Self-consistent Calculation

      iter #   1 total cpu time : 37046.2 secs   av.it.:   9.2
      thresh= 1.000E-02 alpha_mix =  0.700 |ddv_scf|^2 =  2.570E-07

      iter #   2 total cpu time : 37188.2 secs   av.it.:  20.6
      thresh= 5.070E-05 alpha_mix =  0.700 |ddv_scf|^2 =  6.581E-08

      iter #   3 total cpu time : 37327.3 secs   av.it.:  20.1
      thresh= 2.565E-05 alpha_mix =  0.700 |ddv_scf|^2 =  5.710E-09

      iter #   4 total cpu time : 37467.4 secs   av.it.:  20.1
      thresh= 7.557E-06 alpha_mix =  0.700 |ddv_scf|^2 =  7.248E-10

      iter #   5 total cpu time : 37606.6 secs   av.it.:  20.0
      thresh= 2.692E-06 alpha_mix =  0.700 |ddv_scf|^2 =  1.264E-11

      iter #   6 total cpu time : 37748.1 secs   av.it.:  20.5
      thresh= 3.556E-07 alpha_mix =  0.700 |ddv_scf|^2 =  1.097E-12

      iter #   7 total cpu time : 37892.9 secs   av.it.:  21.0
      thresh= 1.047E-07 alpha_mix =  0.700 |ddv_scf|^2 =  3.221E-13

     End of self-consistent calculation

     Convergence has been achieved 


     Representation #  35 mode #  35

     Self-consistent Calculation

      iter #   1 total cpu time : 37972.6 secs   av.it.:   9.0
      thresh= 1.000E-02 alpha_mix =  0.700 |ddv_scf|^2 =  2.297E-07

      iter #   2 total cpu time : 38113.4 secs   av.it.:  20.3
      thresh= 4.793E-05 alpha_mix =  0.700 |ddv_scf|^2 =  3.984E-08

      iter #   3 total cpu time : 38254.1 secs   av.it.:  20.2
      thresh= 1.996E-05 alpha_mix =  0.700 |ddv_scf|^2 =  3.995E-09

      iter #   4 total cpu time : 38394.6 secs   av.it.:  20.2
      thresh= 6.321E-06 alpha_mix =  0.700 |ddv_scf|^2 =  5.089E-10

      iter #   5 total cpu time : 38533.3 secs   av.it.:  19.9
      thresh= 2.256E-06 alpha_mix =  0.700 |ddv_scf|^2 =  1.041E-11

      iter #   6 total cpu time : 38674.8 secs   av.it.:  20.5
      thresh= 3.226E-07 alpha_mix =  0.700 |ddv_scf|^2 =  1.205E-12

      iter #   7 total cpu time : 38818.8 secs   av.it.:  20.9
      thresh= 1.098E-07 alpha_mix =  0.700 |ddv_scf|^2 =  3.315E-13

     End of self-consistent calculation

     Convergence has been achieved 


     Representation #  36 mode #  36

     Self-consistent Calculation

      iter #   1 total cpu time : 38903.0 secs   av.it.:   9.9
      thresh= 1.000E-02 alpha_mix =  0.700 |ddv_scf|^2 =  4.889E-07

      iter #   2 total cpu time : 39043.8 secs   av.it.:  20.4
      thresh= 6.992E-05 alpha_mix =  0.700 |ddv_scf|^2 =  2.863E-07

      iter #   3 total cpu time : 39179.1 secs   av.it.:  19.5
      thresh= 5.351E-05 alpha_mix =  0.700 |ddv_scf|^2 =  6.777E-09

      iter #   4 total cpu time : 39319.1 secs   av.it.:  20.4
      thresh= 8.232E-06 alpha_mix =  0.700 |ddv_scf|^2 =  1.895E-09

      iter #   5 total cpu time : 39454.8 secs   av.it.:  19.6
      thresh= 4.353E-06 alpha_mix =  0.700 |ddv_scf|^2 =  1.058E-11

      iter #   6 total cpu time : 39597.5 secs   av.it.:  20.8
      thresh= 3.253E-07 alpha_mix =  0.700 |ddv_scf|^2 =  1.444E-12

      iter #   7 total cpu time : 39741.5 secs   av.it.:  20.9
      thresh= 1.202E-07 alpha_mix =  0.700 |ddv_scf|^2 =  1.894E-13

     End of self-consistent calculation

     Convergence has been achieved 


     Representation #  37 mode #  37

     Self-consistent Calculation

      iter #   1 total cpu time : 39825.0 secs   av.it.:   9.9
      thresh= 1.000E-02 alpha_mix =  0.700 |ddv_scf|^2 =  2.570E-07

      iter #   2 total cpu time : 39967.7 secs   av.it.:  20.4
      thresh= 5.070E-05 alpha_mix =  0.700 |ddv_scf|^2 =  6.106E-08

      iter #   3 total cpu time : 40106.6 secs   av.it.:  20.0
      thresh= 2.471E-05 alpha_mix =  0.700 |ddv_scf|^2 =  5.780E-09

      iter #   4 total cpu time : 40245.6 secs   av.it.:  20.0
      thresh= 7.603E-06 alpha_mix =  0.700 |ddv_scf|^2 =  6.178E-10

      iter #   5 total cpu time : 40385.3 secs   av.it.:  20.0
      thresh= 2.485E-06 alpha_mix =  0.700 |ddv_scf|^2 =  7.655E-12

      iter #   6 total cpu time : 40529.1 secs   av.it.:  21.0
      thresh= 2.767E-07 alpha_mix =  0.700 |ddv_scf|^2 =  1.382E-12

      iter #   7 total cpu time : 40672.8 secs   av.it.:  20.9
      thresh= 1.176E-07 alpha_mix =  0.700 |ddv_scf|^2 =  3.021E-13

     End of self-consistent calculation

     Convergence has been achieved 


     Representation #  38 mode #  38

     Self-consistent Calculation

      iter #   1 total cpu time : 40755.8 secs   av.it.:   9.9
      thresh= 1.000E-02 alpha_mix =  0.700 |ddv_scf|^2 =  3.539E-07

      iter #   2 total cpu time : 40897.7 secs   av.it.:  20.7
      thresh= 5.949E-05 alpha_mix =  0.700 |ddv_scf|^2 =  1.770E-07

      iter #   3 total cpu time : 41035.4 secs   av.it.:  20.0
      thresh= 4.207E-05 alpha_mix =  0.700 |ddv_scf|^2 =  7.575E-09

      iter #   4 total cpu time : 41174.4 secs   av.it.:  20.0
      thresh= 8.703E-06 alpha_mix =  0.700 |ddv_scf|^2 =  1.196E-09

      iter #   5 total cpu time : 41311.8 secs   av.it.:  19.9
      thresh= 3.458E-06 alpha_mix =  0.700 |ddv_scf|^2 =  2.521E-11

      iter #   6 total cpu time : 41454.1 secs   av.it.:  20.8
      thresh= 5.021E-07 alpha_mix =  0.700 |ddv_scf|^2 =  3.908E-12

      iter #   7 total cpu time : 41595.9 secs   av.it.:  20.5
      thresh= 1.977E-07 alpha_mix =  0.700 |ddv_scf|^2 =  3.164E-13

     End of self-consistent calculation

     Convergence has been achieved 


     Representation #  39 mode #  39

     Self-consistent Calculation

      iter #   1 total cpu time : 41678.9 secs   av.it.:  10.0
      thresh= 1.000E-02 alpha_mix =  0.700 |ddv_scf|^2 =  3.901E-07

      iter #   2 total cpu time : 41820.0 secs   av.it.:  20.5
      thresh= 6.246E-05 alpha_mix =  0.700 |ddv_scf|^2 =  2.003E-07

      iter #   3 total cpu time : 41954.7 secs   av.it.:  19.6
      thresh= 4.475E-05 alpha_mix =  0.700 |ddv_scf|^2 =  1.007E-08

      iter #   4 total cpu time : 42095.1 secs   av.it.:  20.0
      thresh= 1.003E-05 alpha_mix =  0.700 |ddv_scf|^2 =  1.309E-09

      iter #   5 total cpu time : 42233.2 secs   av.it.:  19.9
      thresh= 3.617E-06 alpha_mix =  0.700 |ddv_scf|^2 =  8.321E-12

      iter #   6 total cpu time : 42376.3 secs   av.it.:  21.0
      thresh= 2.885E-07 alpha_mix =  0.700 |ddv_scf|^2 =  1.384E-12

      iter #   7 total cpu time : 42518.4 secs   av.it.:  20.8
      thresh= 1.177E-07 alpha_mix =  0.700 |ddv_scf|^2 =  2.444E-13

     End of self-consistent calculation

     Convergence has been achieved 

     Number of q in the star =    1
     List of q in the star:
          1   0.000000000   0.000000000   0.000000000

          Dielectric constant in cartesian axis 

          (       3.201769386       0.007136221       0.027124585 )
          (       0.007136218       3.195249999       0.017426304 )
          (       0.027124650       0.017426348       3.256908918 )

          Effective charges (d Force / dE) in cartesian axis

           atom      1   Ca 
      Ex  (        2.58381       -0.01251       -0.04756 )
      Ey  (       -0.01251        2.59526       -0.03054 )
      Ez  (       -0.04756       -0.03054        2.48720 )
           atom      2   Ca 
      Ex  (        2.58856        0.03582        0.13615 )
      Ey  (        0.03582        2.55579        0.08744 )
      Ez  (        0.13616        0.08744        2.86517 )
           atom      3   Ca 
      Ex  (        2.58856        0.03582        0.13615 )
      Ey  (        0.03582        2.55579        0.08744 )
      Ez  (        0.13616        0.08744        2.86517 )
           atom      4   P  
      Ex  (        3.37568        0.01359        0.05164 )
      Ey  (        0.01359        3.36325        0.03316 )
      Ez  (        0.05165        0.03317        3.48060 )
           atom      5   P  
      Ex  (        3.37569        0.01358        0.05164 )
      Ey  (        0.01358        3.36326        0.03317 )
      Ez  (        0.05165        0.03317        3.48060 )
           atom      6   O  
      Ex  (       -1.84706       -0.22651        0.41397 )
      Ey  (       -0.22651       -1.63977        0.26582 )
      Ez  (        0.44990        0.28889       -2.05845 )
           atom      7   O  
      Ex  (       -1.49905       -0.05657       -0.01155 )
      Ey  (       -0.04038       -2.52371       -0.09858 )
      Ez  (       -0.01155       -0.13809       -1.52253 )
           atom      8   O  
      Ex  (       -2.38298        0.36409       -0.09445 )
      Ey  (        0.34790       -1.63977        0.03051 )
      Ez  (       -0.13038        0.04696       -1.52252 )
           atom      9   O  
      Ex  (       -2.38298        0.36409       -0.09445 )
      Ey  (        0.34790       -1.63976        0.03051 )
      Ez  (       -0.13038        0.04696       -1.52252 )
           atom     10   O  
      Ex  (       -1.84706       -0.22651        0.41397 )
      Ey  (       -0.22651       -1.63977        0.26582 )
      Ez  (        0.44990        0.28889       -2.05845 )
           atom     11   O  
      Ex  (       -1.52386       -0.12410       -0.47176 )
      Ey  (       -0.12410       -1.41030       -0.30294 )
      Ez  (       -0.47177       -0.30295       -2.48226 )
           atom     12   O  
      Ex  (       -1.52386       -0.12410       -0.47176 )
      Ey  (       -0.12410       -1.41030       -0.30294 )
      Ez  (       -0.47177       -0.30295       -2.48226 )
           atom     13   O  
      Ex  (       -1.49905       -0.05658       -0.01155 )
      Ey  (       -0.04039       -2.52370       -0.09858 )
      Ez  (       -0.01155       -0.13809       -1.52253 )

     Diagonalizing the dynamical matrix

     q = (    0.000000000   0.000000000   0.000000000 ) 

 **************************************************************************
     freq (    1) =      -3.605241 [THz] =    -120.257907 [cm-1]
     freq (    2) =      -1.025598 [THz] =     -34.210258 [cm-1]
     freq (    3) =      -0.880717 [THz] =     -29.377544 [cm-1]
     freq (    4) =      -0.844949 [THz] =     -28.184474 [cm-1]
     freq (    5) =       0.715048 [THz] =      23.851426 [cm-1]
     freq (    6) =       0.734704 [THz] =      24.507080 [cm-1]
     freq (    7) =       1.548859 [THz] =      51.664378 [cm-1]
     freq (    8) =       3.719777 [THz] =     124.078415 [cm-1]
     freq (    9) =       3.773103 [THz] =     125.857167 [cm-1]
     freq (   10) =       4.527864 [THz] =     151.033286 [cm-1]
     freq (   11) =       4.575937 [THz] =     152.636840 [cm-1]
     freq (   12) =       5.421976 [THz] =     180.857666 [cm-1]
     freq (   13) =       5.433235 [THz] =     181.233207 [cm-1]
     freq (   14) =       6.131331 [THz] =     204.519195 [cm-1]
     freq (   15) =       6.208382 [THz] =     207.089336 [cm-1]
     freq (   16) =       6.256690 [THz] =     208.700722 [cm-1]
     freq (   17) =       6.822385 [THz] =     227.570257 [cm-1]
     freq (   18) =       6.861001 [THz] =     228.858359 [cm-1]
     freq (   19) =       7.623767 [THz] =     254.301500 [cm-1]
     freq (   20) =       8.486560 [THz] =     283.081180 [cm-1]
     freq (   21) =       8.520957 [THz] =     284.228516 [cm-1]
     freq (   22) =      11.581325 [THz] =     386.311432 [cm-1]
     freq (   23) =      11.595705 [THz] =     386.791090 [cm-1]
     freq (   24) =      13.269354 [THz] =     442.617996 [cm-1]
     freq (   25) =      13.278148 [THz] =     442.911345 [cm-1]
     freq (   26) =      15.793870 [THz] =     526.826789 [cm-1]
     freq (   27) =      15.803021 [THz] =     527.132039 [cm-1]
     freq (   28) =      16.266202 [THz] =     542.582088 [cm-1]
     freq (   29) =      16.278370 [THz] =     542.987980 [cm-1]
     freq (   30) =      16.325715 [THz] =     544.567236 [cm-1]
     freq (   31) =      18.430680 [THz] =     614.781307 [cm-1]
     freq (   32) =      29.702881 [THz] =     990.781464 [cm-1]
     freq (   33) =      29.937801 [THz] =     998.617544 [cm-1]
     freq (   34) =      31.164662 [THz] =    1039.541243 [cm-1]
     freq (   35) =      31.168935 [THz] =    1039.683744 [cm-1]
     freq (   36) =      31.380230 [THz] =    1046.731796 [cm-1]
     freq (   37) =      31.389451 [THz] =    1047.039377 [cm-1]
     freq (   38) =      33.820170 [THz] =    1128.119456 [cm-1]
     freq (   39) =      33.945034 [THz] =    1132.284456 [cm-1]
 **************************************************************************

     Mode symmetry, C_1 (1)     point group:

     freq (   1-   1) =       -120.3  [cm-1]   --> A               I+R
     freq (   2-   2) =        -34.2  [cm-1]   --> A               I+R
     freq (   3-   3) =        -29.4  [cm-1]   --> A               I+R
     freq (   4-   4) =        -28.2  [cm-1]   --> A               I+R
     freq (   5-   5) =         23.9  [cm-1]   --> A               I+R
     freq (   6-   6) =         24.5  [cm-1]   --> A               I+R
     freq (   7-   7) =         51.7  [cm-1]   --> A               I+R
     freq (   8-   8) =        124.1  [cm-1]   --> A               I+R
     freq (   9-   9) =        125.9  [cm-1]   --> A               I+R
     freq (  10-  10) =        151.0  [cm-1]   --> A               I+R
     freq (  11-  11) =        152.6  [cm-1]   --> A               I+R
     freq (  12-  12) =        180.9  [cm-1]   --> A               I+R
     freq (  13-  13) =        181.2  [cm-1]   --> A               I+R
     freq (  14-  14) =        204.5  [cm-1]   --> A               I+R
     freq (  15-  15) =        207.1  [cm-1]   --> A               I+R
     freq (  16-  16) =        208.7  [cm-1]   --> A               I+R
     freq (  17-  17) =        227.6  [cm-1]   --> A               I+R
     freq (  18-  18) =        228.9  [cm-1]   --> A               I+R
     freq (  19-  19) =        254.3  [cm-1]   --> A               I+R
     freq (  20-  20) =        283.1  [cm-1]   --> A               I+R
     freq (  21-  21) =        284.2  [cm-1]   --> A               I+R
     freq (  22-  22) =        386.3  [cm-1]   --> A               I+R
     freq (  23-  23) =        386.8  [cm-1]   --> A               I+R
     freq (  24-  24) =        442.6  [cm-1]   --> A               I+R
     freq (  25-  25) =        442.9  [cm-1]   --> A               I+R
     freq (  26-  26) =        526.8  [cm-1]   --> A               I+R
     freq (  27-  27) =        527.1  [cm-1]   --> A               I+R
     freq (  28-  28) =        542.6  [cm-1]   --> A               I+R
     freq (  29-  29) =        543.0  [cm-1]   --> A               I+R
     freq (  30-  30) =        544.6  [cm-1]   --> A               I+R
     freq (  31-  31) =        614.8  [cm-1]   --> A               I+R
     freq (  32-  32) =        990.8  [cm-1]   --> A               I+R
     freq (  33-  33) =        998.6  [cm-1]   --> A               I+R
     freq (  34-  34) =       1039.5  [cm-1]   --> A               I+R
     freq (  35-  35) =       1039.7  [cm-1]   --> A               I+R
     freq (  36-  36) =       1046.7  [cm-1]   --> A               I+R
     freq (  37-  37) =       1047.0  [cm-1]   --> A               I+R
     freq (  38-  38) =       1128.1  [cm-1]   --> A               I+R
     freq (  39-  39) =       1132.3  [cm-1]   --> A               I+R

     PHONON       :     11h35m CPU     11h48m WALL

     INITIALIZATION: 
     phq_setup    :      0.18s CPU      0.20s WALL (       1 calls)
     phq_init     :    159.96s CPU    162.77s WALL (       1 calls)

     phq_init     :    159.96s CPU    162.77s WALL (       1 calls)
     set_drhoc    :      2.99s CPU      3.00s WALL (       3 calls)
     init_vloc    :      0.86s CPU      0.86s WALL (       1 calls)
     init_us_1    :      0.18s CPU      0.18s WALL (       1 calls)
     newd         :      0.28s CPU      0.32s WALL (       1 calls)
     dvanqq       :     22.18s CPU     22.19s WALL (       1 calls)
     drho         :    124.39s CPU    127.14s WALL (       1 calls)
     cmpt_qdipol  :      0.00s CPU      0.00s WALL (       1 calls)

     DIELECTRIC CONSTANT AND EFFECTIVE CHARGES:
     solve_e      :   3711.98s CPU   3793.43s WALL (       1 calls)
     dielec       :      0.06s CPU      0.13s WALL (       1 calls)
     zstar_eu     :   1365.01s CPU   1375.63s WALL (       1 calls)

     DYNAMICAL MATRIX:
     dynmat0      :      8.77s CPU      8.80s WALL (       1 calls)
     phqscf       :  36467.14s CPU  37182.30s WALL (       1 calls)
     dynmatrix    :      0.02s CPU      0.08s WALL (       1 calls)

     phqscf       :  36467.14s CPU  37182.30s WALL (       1 calls)
     solve_linter :  36334.24s CPU  37047.79s WALL (      39 calls)
     drhodv       :    132.68s CPU    133.71s WALL (      39 calls)

     dynmat0      :      8.77s CPU      8.80s WALL (       1 calls)
     dynmat_us    :      6.07s CPU      6.09s WALL (       1 calls)
     d2ionq       :      0.39s CPU      0.39s WALL (       1 calls)
     dynmatcc     :      2.22s CPU      2.22s WALL (       1 calls)

     dynmat_us    :      6.07s CPU      6.09s WALL (       1 calls)
     addusdynmat  :      0.00s CPU      0.00s WALL (       1 calls)

     phqscf       :  36467.14s CPU  37182.30s WALL (       1 calls)
     solve_linter :  36334.24s CPU  37047.79s WALL (      39 calls)

     solve_linter :  36334.24s CPU  37047.79s WALL (      39 calls)
     dvqpsi_us    :    527.74s CPU    536.41s WALL (    2808 calls)
     ortho        :    628.61s CPU    630.74s WALL (   11016 calls)
     cgsolve      :  36611.34s CPU  37316.12s WALL (   11016 calls)
     incdrhoscf   :    760.69s CPU    795.45s WALL (   11016 calls)
     addusddens   :    159.06s CPU    159.42s WALL (     321 calls)
     vpsifft      :    402.83s CPU    429.75s WALL (    8748 calls)
     dv_of_drho   :     26.25s CPU     26.89s WALL (     306 calls)
     mix_pot      :      3.17s CPU      5.67s WALL (     289 calls)
     psymdvscf    :     26.60s CPU     27.66s WALL (     282 calls)
     newdq        :    137.73s CPU    137.87s WALL (     289 calls)
     adddvscf     :    247.33s CPU    247.64s WALL (    9396 calls)
     drhodvus     :      1.26s CPU      2.16s WALL (      39 calls)

     dvqpsi_us    :    527.74s CPU    536.41s WALL (    2808 calls)
     dvqpsi_us_on :    377.26s CPU    377.48s WALL (    2808 calls)

     cgsolve      :  36611.34s CPU  37316.12s WALL (   11016 calls)
     ch_psi       :  36052.44s CPU  36752.86s WALL (  299473 calls)

     ch_psi       :  36052.44s CPU  36752.86s WALL (  299473 calls)
     h_psi        :  18851.91s CPU  19509.40s WALL (  299473 calls)
     last         :  12499.79s CPU  12538.53s WALL (  299473 calls)

     h_psi        :  18851.91s CPU  19509.40s WALL (  299473 calls)
     add_vuspsi   :   4652.25s CPU   4656.41s WALL (  299473 calls)

     incdrhoscf   :    760.69s CPU    795.45s WALL (   11016 calls)
     addusdbec    :    269.83s CPU    271.15s WALL (   12420 calls)

     drhodvus     :      1.26s CPU      2.16s WALL (      39 calls)

      General routines
     calbec       :  10865.25s CPU  10924.58s WALL (  662270 calls)
     fft          :     45.22s CPU     46.87s WALL (    7895 calls)
     ffts         :     27.70s CPU     28.20s WALL (    5017 calls)
     fftw         :   8832.48s CPU   9422.21s WALL (21181110 calls)
     davcio       :     10.30s CPU     24.65s WALL (   60581 calls)
     write_rec    :      0.56s CPU      3.08s WALL (     328 calls)


     PHONON       :     11h35m CPU     11h48m WALL


   This run was terminated on:   9:54:45   5Jul2026            

=------------------------------------------------------------------------------=
   JOB DONE.
=------------------------------------------------------------------------------=
