
     Program PWSCF v.6.7MaX starts on  3Jul2026 at 18:24:21 

     This program is part of the open-source Quantum ESPRESSO suite
     for quantum simulation of materials; please cite
         "P. Giannozzi et al., J. Phys.:Condens. Matter 21 395502 (2009);
         "P. Giannozzi et al., J. Phys.:Condens. Matter 29 465901 (2017);
          URL http://www.quantum-espresso.org", 
     in publications or presentations arising from this work. More details at
     http://www.quantum-espresso.org/quote

     Parallel version (MPI), running on     8 processors

     MPI processes distributed on     1 nodes
     K-points division:     npool     =       2
     R & G space division:  proc/nbgrp/npool/nimage =       4
     Waiting for input...
     Reading input from standard input

     Current dimensions of program PWSCF are:
     Max number of different atomic species (ntypx) = 10
     Max number of k-points (npk) =  40000
     Max angular momentum in pseudopotentials (lmaxx) =  3
     file Ca.pbe-spn-kjpaw_psl.1.0.0.UPF: wavefunction(s)  3S renormalized
     file P.pbe-n-kjpaw_psl.1.0.0.UPF: wavefunction(s)  3S 3P renormalized
     file O.pbe-n-kjpaw_psl.0.1.UPF: wavefunction(s)  2P renormalized

     Subspace diagonalization in iterative solution of the eigenvalue problem:
     one sub-group per band group will be used
     scalapack distributed-memory algorithm (size of sub-group:  2*  2 procs)

     Message from routine setup:
     using ibrav=0 with symmetry is DISCOURAGED, use correct ibrav instead

     Parallelization info
     --------------------
     sticks:   dense  smooth     PW     G-vecs:    dense   smooth      PW
     Min         949     474    137                33471    11818    1856
     Max         950     475    138                33472    11819    1857
     Sum        3799    1897    549               133887    47273    7427



     bravais-lattice index     =            0
     lattice parameter (alat)  =      13.0318  a.u.
     unit-cell volume          =     990.2235 (a.u.)^3
     number of atoms/cell      =           13
     number of atomic types    =            3
     number of electrons       =        88.00
     number of Kohn-Sham states=           53
     kinetic-energy cutoff     =      50.0000  Ry
     charge density cutoff     =     400.0000  Ry
     scf convergence threshold =      1.0E-08
     mixing beta               =       0.3000
     number of iterations used =            8  plain     mixing
     energy convergence thresh.=      1.0E-05
     force convergence thresh. =      1.0E-04
     press convergence thresh. =      5.0E-01
     Exchange-correlation= SLA  PW   PBX  PBC
                           (   1   4   3   4   0   0   0)
     nstep                     =           50


     celldm(1)=  13.031835  celldm(2)=   0.000000  celldm(3)=   0.000000
     celldm(4)=   0.000000  celldm(5)=   0.000000  celldm(6)=   0.000000

     crystal axes: (cart. coord. in units of alat)
               a(1) = (   0.701517   0.000051   0.712653 )  
               a(2) = (   0.291941   0.637884   0.712653 )  
               a(3) = (   0.000079   0.000051   1.000000 )  

     reciprocal axes: (cart. coord. in units 2 pi/alat)
               b(1) = (  1.425610 -0.652372 -0.000079 )  
               b(2) = ( -0.000032  1.567786 -0.000079 )  
               b(3) = ( -1.015942 -0.652372  1.000113 )  


     PseudoPot. # 1 for Ca read from file:
     /data/pseudopotentials/Ca.pbe-spn-kjpaw_psl.1.0.0.UPF
     MD5 check sum: 1e11ab70c77b02a7d7d676f41d47b751
     Pseudo is Projector augmented-wave + core cor, Zval = 10.0
     Generated using &quot;atomic&quot; code by A. Dal Corso  v.6.4.1
     Shape of augmentation charge: PSQ
     Using radial grid of 1169 points,  6 beta functions with: 
                l(1) =   0
                l(2) =   0
                l(3) =   1
                l(4) =   1
                l(5) =   2
                l(6) =   2
     Q(r) pseudized with 0 coefficients 


     PseudoPot. # 2 for P  read from file:
     /data/pseudopotentials/P.pbe-n-kjpaw_psl.1.0.0.UPF
     MD5 check sum: 06b8cad1975795032ee26009bb7624c7
     Pseudo is Projector augmented-wave + core cor, Zval =  5.0
     Generated using &quot;atomic&quot; code by A. Dal Corso  v.6.3
     Shape of augmentation charge: PSQ
     Using radial grid of 1147 points,  6 beta functions with: 
                l(1) =   0
                l(2) =   0
                l(3) =   1
                l(4) =   1
                l(5) =   2
                l(6) =   2
     Q(r) pseudized with 0 coefficients 


     PseudoPot. # 3 for O  read from file:
     /data/pseudopotentials/O.pbe-n-kjpaw_psl.0.1.UPF
     MD5 check sum: 833c495a5d0f9b75bf046115549bffff
     Pseudo is Projector augmented-wave + core cor, Zval =  6.0
     Generated using &quot;atomic&quot; code by A. Dal Corso  v.6.3
     Shape of augmentation charge: BESSEL
     Using radial grid of 1095 points,  4 beta functions with: 
                l(1) =   0
                l(2) =   0
                l(3) =   1
                l(4) =   1
     Q(r) pseudized with 0 coefficients 


     atomic species   valence    mass     pseudopotential
        Ca            10.00    40.07800     Ca( 1.00)
        P              5.00    30.97376     P ( 1.00)
        O              6.00    15.99900     O ( 1.00)

      2 Sym. Ops., with inversion, found



   Cartesian axes

     site n.     atom                  positions (alat units)
         1           Ca  tau(   1) = (   0.0000000   0.0000000   0.0000000  )
         2           Ca  tau(   2) = (   0.2018097   0.1295892   0.4926343  )
         3           Ca  tau(   3) = (   0.7917271   0.5083960   1.9326719  )
         4           P   tau(   4) = (   0.4024046   0.2583983   0.9823032  )
         5           P   tau(   5) = (   0.5911322   0.3795869   1.4430030  )
         6           O   tau(   6) = (   0.7224291   0.4638974   1.2833381  )
         7           O   tau(   7) = (   0.5822581   0.1575689   1.4213405  )
         8           O   tau(   8) = (   0.3855538   0.4638974   1.4213405  )
         9           O   tau(   9) = (   0.6079830   0.1740878   1.0039657  )
        10           O   tau(  10) = (   0.2711077   0.1740878   1.1419681  )
        11           O   tau(  11) = (   0.3213490   0.2063496   0.7844397  )
        12           O   tau(  12) = (   0.6721878   0.4316356   1.6408665  )
        13           O   tau(  13) = (   0.4112787   0.4804163   1.0039657  )

     number of k points=    36  Gaussian smearing, width (Ry)=  0.0050
                       cart. coord. in units 2pi/alat
        k(    1) = (   0.0000000   0.0000000   0.0000000), wk =   0.0312500
        k(    2) = (  -0.2539856  -0.1630931   0.2500282), wk =   0.0625000
        k(    3) = (   0.5079711   0.3261861  -0.5000564), wk =   0.0312500
        k(    4) = (  -0.0000081   0.3919465  -0.0000198), wk =   0.0625000
        k(    5) = (  -0.2539937   0.2288535   0.2500084), wk =   0.0625000
        k(    6) = (   0.5079630   0.7181327  -0.5000762), wk =   0.0625000
        k(    7) = (   0.2539775   0.5550396  -0.2500480), wk =   0.0625000
        k(    8) = (   0.0000162  -0.7838931   0.0000396), wk =   0.0312500
        k(    9) = (  -0.2539693  -0.9469861   0.2500678), wk =   0.0625000
        k(   10) = (   0.5079874  -0.4577070  -0.5000168), wk =   0.0312500
        k(   11) = (   0.3564026  -0.1630931  -0.0000198), wk =   0.0625000
        k(   12) = (   0.1024170  -0.3261862   0.2500084), wk =   0.0625000
        k(   13) = (   0.8643737   0.1630930  -0.5000763), wk =   0.0625000
        k(   14) = (   0.6103882  -0.0000000  -0.2500480), wk =   0.0625000
        k(   15) = (   0.3563945   0.2288534  -0.0000396), wk =   0.0625000
        k(   16) = (   0.1024089   0.0657604   0.2499886), wk =   0.0625000
        k(   17) = (   0.8643656   0.5550396  -0.5000961), wk =   0.0625000
        k(   18) = (   0.6103801   0.3919465  -0.2500679), wk =   0.0625000
        k(   19) = (   0.3564188  -0.9469862   0.0000198), wk =   0.0625000
        k(   20) = (   0.1024333  -1.1100793   0.2500480), wk =   0.0625000
        k(   21) = (   0.8643900  -0.6208001  -0.5000366), wk =   0.0625000
        k(   22) = (   0.6104044  -0.7838931  -0.2500084), wk =   0.0625000
        k(   23) = (   0.3564107  -0.5550396  -0.0000000), wk =   0.0625000
        k(   24) = (   0.1024252  -0.7181327   0.2500282), wk =   0.0625000
        k(   25) = (   0.8643819  -0.2288535  -0.5000565), wk =   0.0625000
        k(   26) = (   0.6103963  -0.3919466  -0.2500282), wk =   0.0625000
        k(   27) = (  -0.7128052   0.3261862   0.0000397), wk =   0.0312500
        k(   28) = (  -0.9667908   0.1630932   0.2500679), wk =   0.0625000
        k(   29) = (  -0.2048341   0.6523723  -0.5000167), wk =   0.0312500
        k(   30) = (  -0.7128133   0.7181328   0.0000199), wk =   0.0625000
        k(   31) = (  -0.9667989   0.5550397   0.2500481), wk =   0.0625000
        k(   32) = (  -0.2048422   1.0443189  -0.5000365), wk =   0.0625000
        k(   33) = (  -0.4588278   0.8812258  -0.2500083), wk =   0.0625000
        k(   34) = (  -0.7127890  -0.4577069   0.0000793), wk =   0.0312500
        k(   35) = (  -0.9667746  -0.6207999   0.2501075), wk =   0.0625000
        k(   36) = (  -0.2048179  -0.1315207  -0.4999771), wk =   0.0312500

     Dense  grid:   133887 G-vectors     FFT dimensions: (  90,  90,  90)

     Smooth grid:    47273 G-vectors     FFT dimensions: (  60,  60,  60)

     Estimated max dynamical RAM per process >     117.80 MB

     Estimated total dynamical RAM >     942.43 MB

     Check: negative core charge=   -0.000003

     Initial potential from superposition of free atoms

     starting charge   87.98510, renormalised to   88.00000
     Starting wfcs are   64 randomized atomic wfcs
     Checking if some PAW data can be deallocated... 

     total cpu time spent up to now is       28.7 secs

     Self-consistent Calculation

     iteration #  1     ecut=    50.00 Ry     beta= 0.30
     Davidson diagonalization with overlap
     ethr =  1.00E-02,  avg # of iterations =  6.6

     total cpu time spent up to now is       96.0 secs

     total energy              =    -845.96625669 Ry
     estimated scf accuracy    <       2.86420106 Ry

     iteration #  2     ecut=    50.00 Ry     beta= 0.30
     Davidson diagonalization with overlap
     ethr =  3.25E-03,  avg # of iterations =  2.1

     total cpu time spent up to now is      144.4 secs

     total energy              =    -846.38684655 Ry
     estimated scf accuracy    <       0.20513581 Ry

     iteration #  3     ecut=    50.00 Ry     beta= 0.30
     Davidson diagonalization with overlap
     c_bands:  1 eigenvalues not converged
     ethr =  2.33E-04,  avg # of iterations = 15.6

     total cpu time spent up to now is      255.5 secs

     total energy              =    -846.48746816 Ry
     estimated scf accuracy    <       0.06856218 Ry

     iteration #  4     ecut=    50.00 Ry     beta= 0.30
     Davidson diagonalization with overlap
     c_bands:  1 eigenvalues not converged
     ethr =  7.79E-05,  avg # of iterations =  8.0

     total cpu time spent up to now is      317.4 secs

     total energy              =    -846.50747267 Ry
     estimated scf accuracy    <       0.02935826 Ry

     iteration #  5     ecut=    50.00 Ry     beta= 0.30
     Davidson diagonalization with overlap
     ethr =  3.34E-05,  avg # of iterations =  2.0

     total cpu time spent up to now is      359.1 secs

     total energy              =    -846.50639716 Ry
     estimated scf accuracy    <       0.00755311 Ry

     iteration #  6     ecut=    50.00 Ry     beta= 0.30
     Davidson diagonalization with overlap
     c_bands:  2 eigenvalues not converged
     c_bands:  2 eigenvalues not converged
     c_bands:  2 eigenvalues not converged
     c_bands:  2 eigenvalues not converged
     c_bands:  3 eigenvalues not converged
     c_bands:  2 eigenvalues not converged
     c_bands:  3 eigenvalues not converged
     c_bands:  1 eigenvalues not converged
     c_bands:  1 eigenvalues not converged
     c_bands:  1 eigenvalues not converged
     c_bands:  3 eigenvalues not converged
     c_bands:  3 eigenvalues not converged
     c_bands:  2 eigenvalues not converged
     c_bands:  1 eigenvalues not converged
     c_bands:  3 eigenvalues not converged
     c_bands:  3 eigenvalues not converged
     ethr =  8.58E-06,  avg # of iterations = 19.7

     total cpu time spent up to now is      455.2 secs

     total energy              =    -846.50819081 Ry
     estimated scf accuracy    <       0.00096601 Ry

     iteration #  7     ecut=    50.00 Ry     beta= 0.30
     Davidson diagonalization with overlap
     c_bands:  1 eigenvalues not converged
     c_bands:  3 eigenvalues not converged
     c_bands:  3 eigenvalues not converged
     c_bands:  2 eigenvalues not converged
     c_bands:  1 eigenvalues not converged
     c_bands:  2 eigenvalues not converged
     c_bands:  1 eigenvalues not converged
     c_bands:  3 eigenvalues not converged
     c_bands:  1 eigenvalues not converged
     c_bands:  2 eigenvalues not converged
     c_bands:  1 eigenvalues not converged
     ethr =  1.10E-06,  avg # of iterations = 17.5

     total cpu time spent up to now is      531.1 secs

     total energy              =    -846.50694559 Ry
     estimated scf accuracy    <       0.00242107 Ry

     iteration #  8     ecut=    50.00 Ry     beta= 0.30
     Davidson diagonalization with overlap
     ethr =  1.10E-06,  avg # of iterations =  8.7

     total cpu time spent up to now is      600.0 secs

     total energy              =    -846.50771109 Ry
     estimated scf accuracy    <       0.00025205 Ry

     iteration #  9     ecut=    50.00 Ry     beta= 0.30
     Davidson diagonalization with overlap
     ethr =  2.86E-07,  avg # of iterations =  4.1

     total cpu time spent up to now is      650.3 secs

     total energy              =    -846.50773057 Ry
     estimated scf accuracy    <       0.00008858 Ry

     iteration # 10     ecut=    50.00 Ry     beta= 0.30
     Davidson diagonalization with overlap
     ethr =  1.01E-07,  avg # of iterations =  4.5

     total cpu time spent up to now is      701.9 secs

     total energy              =    -846.50774696 Ry
     estimated scf accuracy    <       0.00001201 Ry

     iteration # 11     ecut=    50.00 Ry     beta= 0.30
     Davidson diagonalization with overlap
     ethr =  1.37E-08,  avg # of iterations =  4.8

     total cpu time spent up to now is      764.1 secs

     total energy              =    -846.50775216 Ry
     estimated scf accuracy    <       0.00000155 Ry

     iteration # 12     ecut=    50.00 Ry     beta= 0.30
     Davidson diagonalization with overlap
     ethr =  1.77E-09,  avg # of iterations =  4.0

     total cpu time spent up to now is      814.4 secs

     total energy              =    -846.50775150 Ry
     estimated scf accuracy    <       0.00000143 Ry

     iteration # 13     ecut=    50.00 Ry     beta= 0.30
     Davidson diagonalization with overlap
     ethr =  1.62E-09,  avg # of iterations =  4.1

     total cpu time spent up to now is      873.5 secs

     total energy              =    -846.50775196 Ry
     estimated scf accuracy    <       0.00000031 Ry

     iteration # 14     ecut=    50.00 Ry     beta= 0.30
     Davidson diagonalization with overlap
     ethr =  3.50E-10,  avg # of iterations =  4.7

     total cpu time spent up to now is      924.8 secs

     total energy              =    -846.50775206 Ry
     estimated scf accuracy    <       0.00000003 Ry

     iteration # 15     ecut=    50.00 Ry     beta= 0.30
     Davidson diagonalization with overlap
     ethr =  3.50E-11,  avg # of iterations =  5.5

     total cpu time spent up to now is      998.0 secs

     total energy              =    -846.50775208 Ry
     estimated scf accuracy    <       0.00000001 Ry

     iteration # 16     ecut=    50.00 Ry     beta= 0.30
     Davidson diagonalization with overlap
     ethr =  1.44E-11,  avg # of iterations =  3.6

     total cpu time spent up to now is     1056.6 secs

     End of self-consistent calculation

          k = 0.0000 0.0000 0.0000 (  5949 PWs)   bands (ev):

   -30.8608 -30.8009 -30.4755 -13.0338 -12.9137 -12.0399 -12.0143 -12.0143
   -11.9592 -11.8645 -11.8645 -11.6676 -11.6676 -11.2762 -10.0238 -10.0238
    -9.9559  -9.9559  -9.8966  -9.5659  -0.4072  -0.0571   2.2521   2.2521
     2.5201   2.6490   2.8188   2.8188   4.2754   4.2754   4.4091   5.1016
     5.1016   5.4427   5.4427   6.3183   6.3320   6.3320   6.8940   6.8940
     6.9435   6.9435   7.0763   7.3740  13.1277  13.3410  13.3410  14.5303
    14.7053  14.7054  14.7298  14.7556  14.7556

          k =-0.2540-0.1631 0.2500 (  5904 PWs)   bands (ev):

   -30.8529 -30.8083 -30.4755 -13.1337 -12.8346 -12.1069 -12.0941 -12.0857
   -11.9472 -11.8039 -11.7030 -11.6790 -11.5586 -11.4188 -10.1016 -10.0064
    -9.9383  -9.9105  -9.8321  -9.6058  -0.0224   0.2077   2.2222   2.3920
     2.4200   2.6461   2.8683   2.9823   4.0045   4.3476   4.5390   4.9951
     5.0840   5.2709   5.3819   5.6393   6.1405   6.2357   6.5167   6.7920
     6.8145   6.9091   7.0436   7.2046  13.4653  13.7641  13.9411  14.4553
    14.7633  14.7979  15.0109  15.0972  15.1418

          k = 0.5080 0.3262-0.5001 (  5912 PWs)   bands (ev):

   -30.8403 -30.8204 -30.4755 -13.2243 -12.6802 -12.3044 -12.1655 -12.1265
   -11.8039 -11.7511 -11.7234 -11.6624 -11.6047 -11.3044 -10.2968  -9.9904
    -9.9094  -9.8656  -9.6931  -9.6758   0.4090   0.5720   2.1873   2.2324
     2.6312   2.7211   2.8039   3.1539   4.0067   4.4475   4.5107   4.5726
     4.7351   4.8765   5.4036   5.6252   5.6676   6.0785   6.2698   6.7719
     6.8241   6.8817   6.8862   7.1993  13.9924  14.0344  14.0965  14.4770
    14.7505  14.8411  14.8810  15.1627  15.3938

          k =-0.0000 0.3919-0.0000 (  5904 PWs)   bands (ev):

   -30.8529 -30.8083 -30.4755 -13.1337 -12.8346 -12.1069 -12.0941 -12.0857
   -11.9472 -11.8039 -11.7030 -11.6790 -11.5586 -11.4188 -10.1016 -10.0064
    -9.9383  -9.9105  -9.8321  -9.6058  -0.0224   0.2077   2.2222   2.3920
     2.4200   2.6461   2.8683   2.9824   4.0045   4.3476   4.5390   4.9951
     5.0840   5.2709   5.3819   5.6393   6.1405   6.2357   6.5167   6.7920
     6.8145   6.9091   7.0436   7.2046  13.4653  13.7641  13.9411  14.4553
    14.7634  14.7979  15.0110  15.0973  15.1420

          k =-0.2540 0.2289 0.2500 (  5920 PWs)   bands (ev):

   -30.8528 -30.8083 -30.4756 -13.1266 -12.8923 -12.1306 -12.1297 -11.9820
   -11.9176 -11.8031 -11.7521 -11.6462 -11.5054 -11.4267 -10.1063 -10.0379
    -9.9069  -9.8888  -9.8647  -9.6582   0.0361   0.2457   2.1055   2.3346
     2.4193   2.7410   2.9109   2.9389   4.0745   4.3217   4.5519   5.0294
     5.0901   5.2304   5.2952   5.6010   6.0485   6.2016   6.6199   6.7109
     6.8142   7.0424   7.0662   7.2337  13.4577  13.6767  14.0011  14.5378
    14.6832  14.7223  15.0260  15.1078  15.1419

          k = 0.5080 0.7181-0.5001 (  5924 PWs)   bands (ev):

   -30.8402 -30.8204 -30.4755 -13.1758 -12.8660 -12.2343 -12.1509 -11.9980
   -11.8941 -11.7297 -11.7124 -11.6294 -11.5441 -11.4016 -10.1725  -9.9975
    -9.9313  -9.8902  -9.7387  -9.7309   0.5274   0.6438   1.8869   2.2004
     2.5285   2.8433   2.9398   3.0905   3.9837   4.3550   4.5198   4.6440
     4.8634   5.1446   5.2420   5.5578   5.8505   6.0135   6.1567   6.5321
     6.8159   6.9876   6.9963   7.1446  13.7407  13.9675  14.4217  14.5523
    14.7263  14.7806  14.9948  15.1441  15.1791

          k = 0.2540 0.5550-0.2500 (  5915 PWs)   bands (ev):

   -30.8403 -30.8203 -30.4755 -13.1949 -12.7484 -12.3080 -12.1723 -12.0161
   -11.9437 -11.7291 -11.7048 -11.6287 -11.5134 -11.4121 -10.2106  -9.9878
    -9.9451  -9.8342  -9.7994  -9.6344   0.4434   0.5756   2.0393   2.1723
     2.6322   2.8055   2.9181   3.0928   3.8723   4.3847   4.4454   4.7357
     4.7971   5.2891   5.3809   5.5058   5.8603   6.0456   6.1192   6.5151
     6.8248   6.8908   6.9981   7.0775  13.8284  14.0529  14.4455  14.5383
    14.5784  14.8608  15.0355  15.1725  15.2512

          k = 0.0000-0.7839 0.0000 (  5912 PWs)   bands (ev):

   -30.8403 -30.8204 -30.4755 -13.2243 -12.6802 -12.3044 -12.1655 -12.1265
   -11.8039 -11.7511 -11.7234 -11.6624 -11.6047 -11.3044 -10.2968  -9.9904
    -9.9094  -9.8655  -9.6931  -9.6758   0.4090   0.5720   2.1873   2.2324
     2.6312   2.7211   2.8039   3.1539   4.0067   4.4475   4.5107   4.5726
     4.7351   4.8765   5.4036   5.6252   5.6676   6.0785   6.2698   6.7719
     6.8241   6.8817   6.8862   7.1993  13.9924  14.0343  14.0965  14.4770
    14.7504  14.8411  14.8809  15.1624  15.3937

          k =-0.2540-0.9470 0.2501 (  5924 PWs)   bands (ev):

   -30.8402 -30.8204 -30.4755 -13.1758 -12.8660 -12.2343 -12.1509 -11.9980
   -11.8941 -11.7297 -11.7124 -11.6294 -11.5441 -11.4016 -10.1725  -9.9975
    -9.9313  -9.8902  -9.7387  -9.7309   0.5274   0.6438   1.8869   2.2004
     2.5285   2.8433   2.9398   3.0905   3.9837   4.3550   4.5198   4.6440
     4.8634   5.1446   5.2420   5.5578   5.8505   6.0135   6.1567   6.5321
     6.8159   6.9876   6.9963   7.1446  13.7407  13.9675  14.4217  14.5523
    14.7263  14.7805  14.9948  15.1440  15.1790

          k = 0.5080-0.4577-0.5000 (  5910 PWs)   bands (ev):

   -30.8402 -30.8203 -30.4756 -13.1090 -13.0129 -12.2074 -12.0370 -12.0176
   -11.8267 -11.7797 -11.7221 -11.6320 -11.6265 -11.3274 -10.0901 -10.0307
    -9.9308  -9.8430  -9.8320  -9.7865   0.6021   0.7109   1.6695   2.3157
     2.5956   2.6634   3.0139   3.1790   4.1514   4.1700   4.6874   4.7197
     4.9454   4.9814   5.0479   5.1806   5.7975   6.0266   6.3116   6.6224
     6.7890   6.9386   7.2022   7.2109  13.7943  14.0282  14.2420  14.4304
    14.6903  14.7923  14.9063  15.0798  15.1427

          k = 0.3564-0.1631-0.0000 (  5904 PWs)   bands (ev):

   -30.8529 -30.8083 -30.4755 -13.1337 -12.8346 -12.1069 -12.0941 -12.0857
   -11.9472 -11.8039 -11.7030 -11.6790 -11.5586 -11.4188 -10.1016 -10.0064
    -9.9384  -9.9105  -9.8321  -9.6058  -0.0224   0.2077   2.2222   2.3920
     2.4200   2.6461   2.8683   2.9824   4.0045   4.3476   4.5390   4.9951
     5.0840   5.2709   5.3819   5.6393   6.1405   6.2357   6.5167   6.7920
     6.8145   6.9091   7.0436   7.2046  13.4653  13.7641  13.9411  14.4553
    14.7634  14.7979  15.0112  15.0968  15.1424

          k = 0.1024-0.3262 0.2500 (  5920 PWs)   bands (ev):

   -30.8528 -30.8083 -30.4756 -13.1266 -12.8923 -12.1306 -12.1297 -11.9820
   -11.9176 -11.8031 -11.7521 -11.6462 -11.5054 -11.4267 -10.1063 -10.0379
    -9.9069  -9.8888  -9.8647  -9.6582   0.0361   0.2457   2.1055   2.3346
     2.4193   2.7410   2.9109   2.9389   4.0745   4.3217   4.5519   5.0294
     5.0901   5.2304   5.2952   5.6010   6.0485   6.2016   6.6199   6.7109
     6.8142   7.0424   7.0662   7.2337  13.4577  13.6767  14.0011  14.5377
    14.6833  14.7223  15.0263  15.1079  15.1447

          k = 0.8644 0.1631-0.5001 (  5924 PWs)   bands (ev):

   -30.8402 -30.8204 -30.4755 -13.1758 -12.8660 -12.2343 -12.1509 -11.9980
   -11.8941 -11.7297 -11.7124 -11.6294 -11.5441 -11.4016 -10.1725  -9.9976
    -9.9313  -9.8902  -9.7387  -9.7309   0.5274   0.6438   1.8869   2.2004
     2.5285   2.8433   2.9398   3.0905   3.9837   4.3550   4.5198   4.6440
     4.8634   5.1446   5.2420   5.5578   5.8505   6.0135   6.1566   6.5321
     6.8160   6.9876   6.9963   7.1446  13.7407  13.9675  14.4217  14.5524
    14.7264  14.7807  14.9948  15.1443  15.1795

          k = 0.6104-0.0000-0.2500 (  5915 PWs)   bands (ev):

   -30.8403 -30.8203 -30.4755 -13.1949 -12.7484 -12.3080 -12.1723 -12.0161
   -11.9437 -11.7291 -11.7048 -11.6287 -11.5134 -11.4121 -10.2106  -9.9878
    -9.9451  -9.8342  -9.7994  -9.6344   0.4434   0.5756   2.0393   2.1723
     2.6322   2.8055   2.9181   3.0928   3.8723   4.3847   4.4454   4.7357
     4.7971   5.2891   5.3809   5.5058   5.8603   6.0456   6.1192   6.5151
     6.8247   6.8908   6.9981   7.0775  13.8284  14.0529  14.4455  14.5383
    14.5784  14.8608  15.0355  15.1727  15.2508

          k = 0.3564 0.2289-0.0000 (  5920 PWs)   bands (ev):

   -30.8528 -30.8083 -30.4756 -13.1266 -12.8923 -12.1306 -12.1297 -11.9820
   -11.9176 -11.8031 -11.7521 -11.6462 -11.5054 -11.4267 -10.1063 -10.0379
    -9.9069  -9.8888  -9.8647  -9.6582   0.0361   0.2457   2.1055   2.3346
     2.4193   2.7410   2.9109   2.9388   4.0745   4.3217   4.5519   5.0294
     5.0901   5.2304   5.2952   5.6010   6.0485   6.2016   6.6199   6.7109
     6.8142   7.0424   7.0662   7.2337  13.4577  13.6767  14.0011  14.5377
    14.6832  14.7223  15.0259  15.1076  15.1426

          k = 0.1024 0.0658 0.2500 (  5894 PWs)   bands (ev):

   -30.8606 -30.8009 -30.4757 -13.0877 -12.9846 -12.0209 -12.0209 -12.0083
   -11.8583 -11.8583 -11.7160 -11.6649 -11.6649 -11.2796 -10.0887 -10.0887
    -9.9623  -9.8909  -9.8909  -9.6936  -0.2445   0.0067   2.2279   2.2498
     2.2498   2.7770   2.7770   2.8970   4.3298   4.3298   4.4363   5.0409
     5.0409   5.3363   5.3363   5.9207   6.2913   6.2913   6.9557   6.9557
     7.0857   7.2122   7.2122   7.3637  13.2094  13.2094  13.4397  14.3767
    14.3767  14.6852  14.7550  14.9510  14.9511

          k = 0.8644 0.5550-0.5001 (  5902 PWs)   bands (ev):

   -30.8527 -30.8083 -30.4757 -13.1340 -12.9847 -12.1093 -12.1027 -11.9002
   -11.8424 -11.8083 -11.7123 -11.6696 -11.5653 -11.3917 -10.0738 -10.0628
    -9.9812  -9.8656  -9.8546  -9.7444   0.1787   0.3051   2.1297   2.2936
     2.3936   2.4355   2.9146   3.1321   4.1261   4.4857   4.5046   4.8694
     4.8839   5.1857   5.3139   5.5837   5.9295   6.1516   6.5826   6.9419
     6.9540   7.0211   7.1122   7.3273  13.2642  13.5620  14.1738  14.4119
    14.7177  14.8552  14.9869  15.0117  15.0395

          k = 0.6104 0.3919-0.2501 (  5921 PWs)   bands (ev):

   -30.8402 -30.8204 -30.4755 -13.1908 -12.8428 -12.1877 -12.1836 -12.0294
   -11.8312 -11.7898 -11.6857 -11.6454 -11.6212 -11.3173 -10.2223 -10.0118
    -9.8783  -9.8529  -9.7987  -9.7077   0.5041   0.6305   1.8839   2.2954
     2.6210   2.6448   3.0850   3.1177   4.0299   4.1854   4.6193   4.6199
     4.9059   4.9302   5.1961   5.4950   5.7636   6.0382   6.2756   6.6773
     6.7766   6.9343   7.0444   7.2245  13.9533  14.0256  14.0865  14.4491
    14.7636  14.8535  14.8664  15.1478  15.1672

          k = 0.3564-0.9470 0.0000 (  5924 PWs)   bands (ev):

   -30.8402 -30.8204 -30.4755 -13.1758 -12.8660 -12.2343 -12.1509 -11.9980
   -11.8941 -11.7297 -11.7124 -11.6294 -11.5441 -11.4016 -10.1725  -9.9976
    -9.9313  -9.8902  -9.7387  -9.7309   0.5274   0.6438   1.8869   2.2004
     2.5285   2.8433   2.9398   3.0905   3.9837   4.3550   4.5198   4.6440
     4.8634   5.1446   5.2420   5.5578   5.8505   6.0135   6.1567   6.5321
     6.8159   6.9876   6.9963   7.1446  13.7407  13.9675  14.4217  14.5524
    14.7264  14.7806  14.9950  15.1445  15.1799

          k = 0.1024-1.1101 0.2500 (  5902 PWs)   bands (ev):

   -30.8527 -30.8083 -30.4757 -13.1340 -12.9847 -12.1093 -12.1027 -11.9002
   -11.8424 -11.8083 -11.7123 -11.6696 -11.5653 -11.3917 -10.0738 -10.0628
    -9.9812  -9.8656  -9.8546  -9.7444   0.1787   0.3051   2.1297   2.2936
     2.3936   2.4355   2.9146   3.1321   4.1261   4.4857   4.5046   4.8694
     4.8839   5.1857   5.3139   5.5837   5.9295   6.1516   6.5826   6.9419
     6.9540   7.0211   7.1122   7.3273  13.2642  13.5620  14.1738  14.4119
    14.7178  14.8552  14.9869  15.0134  15.0409

          k = 0.8644-0.6208-0.5000 (  5905 PWs)   bands (ev):

   -30.8526 -30.8083 -30.4757 -13.0957 -13.0606 -12.1328 -12.0671 -11.9412
   -11.8065 -11.7902 -11.7337 -11.6379 -11.4766 -11.4197 -10.0827 -10.0597
    -9.9659  -9.8981  -9.8445  -9.8043   0.2548   0.3416   2.0029   2.1828
     2.4361   2.5392   2.8718   3.1695   4.2109   4.4392   4.5534   4.7909
     4.9540   5.2520   5.3140   5.3144   5.9677   6.0668   6.6546   6.8833
     6.9401   7.0952   7.2047   7.3492  13.2470  13.4692  14.2800  14.5546
    14.6460  14.6919  14.8728  15.0623  15.1524

          k = 0.6104-0.7839-0.2500 (  5912 PWs)   bands (ev):

   -30.8402 -30.8204 -30.4756 -13.1459 -12.9637 -12.2136 -12.1574 -11.8874
   -11.8707 -11.7314 -11.7156 -11.6424 -11.5638 -11.4099 -10.0887 -10.0123
    -9.9763  -9.8706  -9.8103  -9.7513   0.6248   0.7158   1.8129   2.0528
     2.5264   2.8591   2.9176   3.2018   4.0441   4.2601   4.5419   4.6328
     4.8219   5.1031   5.3406   5.4022   5.8753   5.9534   6.2138   6.5093
     6.8494   7.0239   7.0482   7.1838  13.6524  13.9032  14.3798  14.6579
    14.6861  14.8957  14.9121  14.9883  15.1978

          k = 0.3564-0.5550-0.0000 (  5915 PWs)   bands (ev):

   -30.8403 -30.8203 -30.4755 -13.1949 -12.7484 -12.3080 -12.1723 -12.0161
   -11.9437 -11.7291 -11.7048 -11.6287 -11.5134 -11.4121 -10.2106  -9.9878
    -9.9451  -9.8342  -9.7994  -9.6344   0.4434   0.5756   2.0393   2.1723
     2.6322   2.8055   2.9181   3.0928   3.8723   4.3847   4.4454   4.7357
     4.7972   5.2891   5.3809   5.5058   5.8603   6.0456   6.1192   6.5151
     6.8248   6.8908   6.9981   7.0775  13.8284  14.0529  14.4455  14.5383
    14.5785  14.8608  15.0357  15.1729  15.2515

          k = 0.1024-0.7181 0.2500 (  5921 PWs)   bands (ev):

   -30.8402 -30.8204 -30.4755 -13.1908 -12.8428 -12.1877 -12.1836 -12.0294
   -11.8312 -11.7898 -11.6857 -11.6454 -11.6212 -11.3173 -10.2223 -10.0118
    -9.8783  -9.8529  -9.7987  -9.7077   0.5041   0.6306   1.8839   2.2953
     2.6210   2.6448   3.0850   3.1177   4.0299   4.1854   4.6193   4.6199
     4.9059   4.9302   5.1961   5.4950   5.7636   6.0382   6.2756   6.6773
     6.7766   6.9343   7.0444   7.2245  13.9533  14.0256  14.0865  14.4491
    14.7636  14.8535  14.8665  15.1473  15.1671

          k = 0.8644-0.2289-0.5001 (  5912 PWs)   bands (ev):

   -30.8402 -30.8204 -30.4756 -13.1459 -12.9637 -12.2136 -12.1574 -11.8874
   -11.8707 -11.7314 -11.7156 -11.6424 -11.5638 -11.4099 -10.0887 -10.0123
    -9.9763  -9.8706  -9.8103  -9.7513   0.6248   0.7158   1.8129   2.0528
     2.5264   2.8591   2.9176   3.2018   4.0441   4.2601   4.5419   4.6328
     4.8219   5.1031   5.3406   5.4022   5.8753   5.9534   6.2138   6.5093
     6.8494   7.0239   7.0482   7.1838  13.6524  13.9032  14.3798  14.6580
    14.6861  14.8963  14.9122  14.9883  15.1974

          k = 0.6104-0.3919-0.2500 (  5921 PWs)   bands (ev):

   -30.8402 -30.8204 -30.4755 -13.1908 -12.8428 -12.1877 -12.1836 -12.0294
   -11.8312 -11.7898 -11.6857 -11.6454 -11.6212 -11.3173 -10.2223 -10.0118
    -9.8783  -9.8529  -9.7987  -9.7077   0.5041   0.6306   1.8839   2.2953
     2.6210   2.6448   3.0850   3.1177   4.0299   4.1854   4.6193   4.6199
     4.9059   4.9302   5.1961   5.4950   5.7636   6.0382   6.2756   6.6773
     6.7766   6.9343   7.0444   7.2245  13.9533  14.0256  14.0865  14.4491
    14.7636  14.8535  14.8664  15.1474  15.1671

          k =-0.7128 0.3262 0.0000 (  5912 PWs)   bands (ev):

   -30.8403 -30.8204 -30.4755 -13.2243 -12.6802 -12.3044 -12.1655 -12.1265
   -11.8039 -11.7511 -11.7234 -11.6624 -11.6047 -11.3044 -10.2968  -9.9904
    -9.9094  -9.8655  -9.6931  -9.6758   0.4090   0.5720   2.1873   2.2324
     2.6312   2.7211   2.8039   3.1539   4.0067   4.4475   4.5107   4.5726
     4.7351   4.8765   5.4036   5.6252   5.6676   6.0785   6.2698   6.7719
     6.8241   6.8817   6.8862   7.1993  13.9924  14.0343  14.0965  14.4770
    14.7504  14.8411  14.8808  15.1624  15.3946

          k =-0.9668 0.1631 0.2501 (  5924 PWs)   bands (ev):

   -30.8402 -30.8204 -30.4755 -13.1758 -12.8660 -12.2343 -12.1509 -11.9980
   -11.8941 -11.7297 -11.7124 -11.6294 -11.5441 -11.4016 -10.1725  -9.9975
    -9.9313  -9.8902  -9.7387  -9.7309   0.5274   0.6438   1.8869   2.2004
     2.5285   2.8433   2.9398   3.0905   3.9837   4.3550   4.5198   4.6440
     4.8634   5.1446   5.2420   5.5578   5.8505   6.0135   6.1566   6.5321
     6.8159   6.9876   6.9963   7.1446  13.7407  13.9675  14.4217  14.5523
    14.7263  14.7805  14.9948  15.1443  15.1793

          k =-0.2048 0.6524-0.5000 (  5910 PWs)   bands (ev):

   -30.8402 -30.8203 -30.4756 -13.1090 -13.0129 -12.2074 -12.0370 -12.0176
   -11.8267 -11.7797 -11.7221 -11.6320 -11.6265 -11.3274 -10.0901 -10.0307
    -9.9308  -9.8430  -9.8320  -9.7865   0.6021   0.7109   1.6695   2.3157
     2.5956   2.6634   3.0139   3.1790   4.1514   4.1700   4.6874   4.7197
     4.9454   4.9814   5.0479   5.1806   5.7975   6.0266   6.3116   6.6224
     6.7890   6.9386   7.2022   7.2109  13.7943  14.0282  14.2420  14.4304
    14.6903  14.7924  14.9064  15.0801  15.1450

          k =-0.7128 0.7181 0.0000 (  5924 PWs)   bands (ev):

   -30.8402 -30.8204 -30.4755 -13.1758 -12.8660 -12.2343 -12.1509 -11.9980
   -11.8941 -11.7297 -11.7124 -11.6294 -11.5441 -11.4016 -10.1725  -9.9975
    -9.9313  -9.8902  -9.7387  -9.7309   0.5274   0.6438   1.8869   2.2004
     2.5285   2.8433   2.9398   3.0905   3.9837   4.3550   4.5198   4.6440
     4.8634   5.1446   5.2420   5.5578   5.8505   6.0135   6.1567   6.5321
     6.8159   6.9876   6.9963   7.1446  13.7407  13.9675  14.4217  14.5523
    14.7263  14.7805  14.9949  15.1440  15.1802

          k =-0.9668 0.5550 0.2500 (  5902 PWs)   bands (ev):

   -30.8527 -30.8083 -30.4757 -13.1340 -12.9847 -12.1093 -12.1027 -11.9002
   -11.8424 -11.8083 -11.7123 -11.6696 -11.5653 -11.3917 -10.0738 -10.0628
    -9.9812  -9.8656  -9.8546  -9.7444   0.1787   0.3051   2.1297   2.2936
     2.3936   2.4355   2.9146   3.1321   4.1261   4.4857   4.5046   4.8694
     4.8839   5.1857   5.3139   5.5837   5.9295   6.1516   6.5826   6.9419
     6.9540   7.0211   7.1122   7.3273  13.2642  13.5620  14.1738  14.4119
    14.7178  14.8553  14.9869  15.0115  15.0397

          k =-0.2048 1.0443-0.5000 (  5905 PWs)   bands (ev):

   -30.8526 -30.8083 -30.4757 -13.0957 -13.0606 -12.1328 -12.0671 -11.9412
   -11.8065 -11.7902 -11.7337 -11.6379 -11.4766 -11.4197 -10.0827 -10.0596
    -9.9659  -9.8981  -9.8445  -9.8043   0.2548   0.3415   2.0029   2.1828
     2.4361   2.5392   2.8718   3.1695   4.2109   4.4392   4.5534   4.7909
     4.9540   5.2520   5.3140   5.3144   5.9677   6.0668   6.6546   6.8833
     6.9401   7.0952   7.2047   7.3492  13.2470  13.4692  14.2800  14.5547
    14.6460  14.6919  14.8731  15.0626  15.1614

          k =-0.4588 0.8812-0.2500 (  5912 PWs)   bands (ev):

   -30.8402 -30.8204 -30.4756 -13.1459 -12.9637 -12.2136 -12.1574 -11.8874
   -11.8707 -11.7314 -11.7156 -11.6424 -11.5638 -11.4099 -10.0887 -10.0123
    -9.9763  -9.8706  -9.8103  -9.7513   0.6248   0.7158   1.8129   2.0528
     2.5264   2.8591   2.9176   3.2018   4.0441   4.2601   4.5419   4.6328
     4.8219   5.1031   5.3406   5.4022   5.8753   5.9534   6.2138   6.5093
     6.8494   7.0239   7.0482   7.1838  13.6524  13.9032  14.3798  14.6579
    14.6861  14.8957  14.9121  14.9885  15.1977

          k =-0.7128-0.4577 0.0001 (  5910 PWs)   bands (ev):

   -30.8402 -30.8203 -30.4756 -13.1090 -13.0129 -12.2074 -12.0370 -12.0176
   -11.8267 -11.7797 -11.7221 -11.6320 -11.6265 -11.3274 -10.0901 -10.0307
    -9.9308  -9.8430  -9.8320  -9.7865   0.6021   0.7109   1.6695   2.3157
     2.5956   2.6634   3.0139   3.1790   4.1514   4.1700   4.6874   4.7197
     4.9454   4.9814   5.0479   5.1806   5.7975   6.0266   6.3116   6.6224
     6.7890   6.9386   7.2022   7.2109  13.7943  14.0282  14.2420  14.4304
    14.6903  14.7923  14.9063  15.0792  15.1406

          k =-0.9668-0.6208 0.2501 (  5905 PWs)   bands (ev):

   -30.8526 -30.8083 -30.4757 -13.0957 -13.0606 -12.1328 -12.0671 -11.9412
   -11.8065 -11.7902 -11.7337 -11.6379 -11.4766 -11.4197 -10.0827 -10.0596
    -9.9659  -9.8981  -9.8445  -9.8043   0.2548   0.3415   2.0029   2.1828
     2.4361   2.5392   2.8718   3.1695   4.2109   4.4392   4.5534   4.7909
     4.9540   5.2520   5.3140   5.3144   5.9677   6.0668   6.6546   6.8833
     6.9401   7.0952   7.2047   7.3492  13.2470  13.4692  14.2800  14.5546
    14.6459  14.6920  14.8729  15.0629  15.1681

          k =-0.2048-0.1315-0.5000 (  5858 PWs)   bands (ev):

   -30.8604 -30.8010 -30.4758 -13.1287 -13.0518 -12.0268 -12.0268 -11.9158
   -11.8530 -11.8530 -11.6620 -11.6620 -11.5353 -11.2818 -10.1256 -10.1256
    -9.9859  -9.8794  -9.8539  -9.8539   0.0041   0.0081   2.0296   2.2475
     2.2475   2.7366   2.7366   2.9844   4.4191   4.4191   4.7061   4.8758
     4.8758   5.3238   5.3238   5.3351   6.2619   6.2619   7.0593   7.0593
     7.0959   7.3527   7.4070   7.4070  13.0601  13.0601  14.0053  14.2160
    14.2160  14.2466  14.8475  14.9888  14.9890

     the Fermi energy is     9.7147 ev

!    total energy              =    -846.50775208 Ry

     total all-electron energy =     -6656.422817 Ry
     estimated scf accuracy    <          2.8E-09 Ry
     smearing contrib. (-TS)   =      -0.00000000 Ry
     internal energy E=F+TS    =    -846.50775208 Ry

     The total energy is F=E-TS. E is the sum of the following terms:
     one-electron contribution =    -107.91534187 Ry
     hartree contribution      =     107.69282246 Ry
     xc contribution           =    -106.51163945 Ry
     ewald contribution        =    -399.80316628 Ry
     one-center paw contrib.   =    -339.97042695 Ry

     convergence has been achieved in  16 iterations

     Forces acting on atoms (cartesian axes, Ry/au):

     atom    1 type  1   force =     0.00000000    0.00000000    0.00000000
     atom    2 type  1   force =     0.00070815    0.00045453    0.00172873
     atom    3 type  1   force =    -0.00070815   -0.00045453   -0.00172873
     atom    4 type  2   force =     0.00085227    0.00054835    0.00207805
     atom    5 type  2   force =    -0.00085227   -0.00054835   -0.00207805
     atom    6 type  3   force =     0.02167227    0.01391639   -0.02609964
     atom    7 type  3   force =    -0.00139017   -0.03648184   -0.00339448
     atom    8 type  3   force =    -0.03375414    0.01391574   -0.00339452
     atom    9 type  3   force =     0.03375414   -0.01391574    0.00339452
     atom   10 type  3   force =    -0.02167227   -0.01391639    0.02609964
     atom   11 type  3   force =    -0.01463650   -0.00939842   -0.03573005
     atom   12 type  3   force =     0.01463650    0.00939842    0.03573005
     atom   13 type  3   force =     0.00139017    0.03648184    0.00339448

     Total force =     0.106035     Total SCF correction =     0.000112


     Computing stress (Cartesian axis) and pressure

          total   stress  (Ry/bohr**3)                   (kbar)     P=       76.08
   0.00051827  -0.00000047  -0.00000182           76.24       -0.07       -0.27
  -0.00000047   0.00051870  -0.00000117           -0.07       76.30       -0.17
  -0.00000182  -0.00000117   0.00051460           -0.27       -0.17       75.70


     BFGS Geometry Optimization
     Energy error            =      0.0E+00
     Gradient error          =      3.6E-02
     Cell gradient error     =      5.2E-04


     number of scf cycles    =   1
     number of bfgs steps    =   0

     enthalpy new            =    -846.5077520803 Ry

     new trust radius        =       0.0816123109 bohr
     new conv_thr            =       0.0000000100 Ry

     new unit-cell volume =   1029.13233 a.u.^3 (   152.50168 Ang^3 )
     density =      3.37737 g/cm^3

CELL_PARAMETERS (angstrom)
   4.900223210   0.000152563   4.977568072
   2.039081572   4.455821270   4.977568069
   0.000237196   0.000151860   6.984869892

ATOMIC_POSITIONS (angstrom)
Ca            0.0000000000        0.0000000000        0.0000000000
Ca            1.4099567349        0.9053830524        3.4418230919
Ca            5.5295852429        3.5507426400       13.4981829409
P             2.8111263245        1.8051243536        6.8621946560
P             4.1284156533        2.6510013388       10.0778113768
O             5.0577080831        3.2477336401        8.9496386135
O             4.0661621376        1.0808205637        9.9258442934
O             2.6747104293        3.2477329480        9.9258442734
O             4.2648315486        1.2083927444        7.0141617594
O             1.8818338947        1.2083920523        7.9903674193
O             2.2366769023        1.4362495614        5.4599159561
O             4.7028650756        3.0198761310       11.4800900767
O             2.8733798403        3.3753051287        7.0141617394



     Writing output data file ./out2/Ca3O8P2.save/
     NEW-OLD atomic charge density approx. for the potential

     Check: negative core charge=   -0.000003
     extrapolated charge   91.32649, renormalised to   88.00000

     total cpu time spent up to now is     1112.4 secs

     Self-consistent Calculation

     iteration #  1     ecut=    50.00 Ry     beta= 0.30
     Davidson diagonalization with overlap
     c_bands:  1 eigenvalues not converged
     c_bands:  2 eigenvalues not converged
     c_bands:  1 eigenvalues not converged
     c_bands:  1 eigenvalues not converged
     c_bands:  1 eigenvalues not converged
     c_bands:  2 eigenvalues not converged
     c_bands:  1 eigenvalues not converged
     c_bands:  3 eigenvalues not converged
     c_bands:  1 eigenvalues not converged
     c_bands:  1 eigenvalues not converged
     c_bands:  1 eigenvalues not converged
     c_bands:  1 eigenvalues not converged
     c_bands:  2 eigenvalues not converged
     c_bands:  1 eigenvalues not converged
     c_bands:  1 eigenvalues not converged
     c_bands:  3 eigenvalues not converged
     c_bands:  1 eigenvalues not converged
     ethr =  1.00E-06,  avg # of iterations = 19.7

     total cpu time spent up to now is     1326.2 secs

     total energy              =    -846.24091849 Ry
     estimated scf accuracy    <       0.26746692 Ry

     iteration #  2     ecut=    50.00 Ry     beta= 0.30
     Davidson diagonalization with overlap
     ethr =  3.04E-04,  avg # of iterations =  3.0

     total cpu time spent up to now is     1393.0 secs

     total energy              =    -846.53109849 Ry
     estimated scf accuracy    <       0.13905625 Ry

     iteration #  3     ecut=    50.00 Ry     beta= 0.30
     Davidson diagonalization with overlap
     ethr =  1.58E-04,  avg # of iterations =  2.0

     total cpu time spent up to now is     1436.0 secs

     total energy              =    -846.48476108 Ry
     estimated scf accuracy    <       0.07453511 Ry

     iteration #  4     ecut=    50.00 Ry     beta= 0.30
     Davidson diagonalization with overlap
     ethr =  8.47E-05,  avg # of iterations =  3.0

     total cpu time spent up to now is     1485.9 secs

     total energy              =    -846.51261402 Ry
     estimated scf accuracy    <       0.00698148 Ry

     iteration #  5     ecut=    50.00 Ry     beta= 0.30
     Davidson diagonalization with overlap
     c_bands:  1 eigenvalues not converged
     ethr =  7.93E-06,  avg # of iterations =  9.9

     total cpu time spent up to now is     1555.0 secs

     total energy              =    -846.51587600 Ry
     estimated scf accuracy    <       0.00268450 Ry

     iteration #  6     ecut=    50.00 Ry     beta= 0.30
     Davidson diagonalization with overlap
     ethr =  3.05E-06,  avg # of iterations =  6.0

     total cpu time spent up to now is     1605.2 secs

     total energy              =    -846.51415530 Ry
     estimated scf accuracy    <       0.00286067 Ry

     iteration #  7     ecut=    50.00 Ry     beta= 0.30
     Davidson diagonalization with overlap
     ethr =  3.05E-06,  avg # of iterations =  3.7

     total cpu time spent up to now is     1662.2 secs

     total energy              =    -846.51472723 Ry
     estimated scf accuracy    <       0.00010315 Ry

     iteration #  8     ecut=    50.00 Ry     beta= 0.30
     Davidson diagonalization with overlap
     ethr =  1.17E-07,  avg # of iterations =  6.7

     total cpu time spent up to now is     1749.4 secs

     total energy              =    -846.51483083 Ry
     estimated scf accuracy    <       0.00014889 Ry

     iteration #  9     ecut=    50.00 Ry     beta= 0.30
     Davidson diagonalization with overlap
     ethr =  1.17E-07,  avg # of iterations =  2.0

     total cpu time spent up to now is     1802.0 secs

     total energy              =    -846.51484665 Ry
     estimated scf accuracy    <       0.00000879 Ry

     iteration # 10     ecut=    50.00 Ry     beta= 0.30
     Davidson diagonalization with overlap
     ethr =  9.99E-09,  avg # of iterations =  6.1

     total cpu time spent up to now is     1888.9 secs

     total energy              =    -846.51485332 Ry
     estimated scf accuracy    <       0.00000473 Ry

     iteration # 11     ecut=    50.00 Ry     beta= 0.30
     Davidson diagonalization with overlap
     ethr =  5.38E-09,  avg # of iterations =  2.0

     total cpu time spent up to now is     1935.9 secs

     total energy              =    -846.51485409 Ry
     estimated scf accuracy    <       0.00000034 Ry

     iteration # 12     ecut=    50.00 Ry     beta= 0.30
     Davidson diagonalization with overlap
     ethr =  3.89E-10,  avg # of iterations =  6.1

     total cpu time spent up to now is     2018.2 secs

     total energy              =    -846.51485443 Ry
     estimated scf accuracy    <       0.00000042 Ry

     iteration # 13     ecut=    50.00 Ry     beta= 0.30
     Davidson diagonalization with overlap
     ethr =  3.89E-10,  avg # of iterations =  2.0

     total cpu time spent up to now is     2060.5 secs

     total energy              =    -846.51485442 Ry
     estimated scf accuracy    <       0.00000013 Ry

     iteration # 14     ecut=    50.00 Ry     beta= 0.30
     Davidson diagonalization with overlap
     ethr =  1.44E-10,  avg # of iterations =  2.2

     total cpu time spent up to now is     2109.3 secs

     total energy              =    -846.51485444 Ry
     estimated scf accuracy    <       0.00000003 Ry

     iteration # 15     ecut=    50.00 Ry     beta= 0.30
     Davidson diagonalization with overlap
     ethr =  2.96E-11,  avg # of iterations =  5.1

     total cpu time spent up to now is     2180.7 secs

     End of self-consistent calculation

          k = 0.0000 0.0000 0.0000 (  5949 PWs)   bands (ev):

   -31.4062 -31.3553 -31.0425 -13.0810 -13.0577 -12.5489 -12.5361 -12.5361
   -12.4085 -12.3901 -12.3901 -12.1938 -12.1938 -11.7400 -10.2692 -10.2692
   -10.2457 -10.2457 -10.1451  -9.8574  -0.9052  -0.6193   1.9574   1.9574
     2.1819   2.2981   2.4935   2.4935   4.0045   4.0045   4.0658   4.8349
     4.8349   5.0883   5.0883   5.9220   5.9879   5.9879   6.4444   6.4444
     6.4963   6.4963   6.6379   6.9265  12.4235  12.7984  12.7984  13.5805
    13.8426  14.0890  14.0890  14.2190  14.2190

          k =-0.2507-0.1610 0.2468 (  5904 PWs)   bands (ev):

   -31.3995 -31.3616 -31.0425 -13.2192 -13.0076 -12.6054 -12.5968 -12.4831
   -12.4568 -12.3482 -12.2307 -12.1986 -12.0513 -11.8913 -10.3821 -10.2733
   -10.2056 -10.1932 -10.0992  -9.8984  -0.5418  -0.3511   1.9095   2.0540
     2.1232   2.3043   2.5297   2.6491   3.7272   4.0733   4.2074   4.6597
     4.8042   4.9827   5.0423   5.2958   5.7938   5.8476   6.1178   6.3501
     6.3677   6.4545   6.5958   6.7506  12.9201  13.2248  13.2787  13.8373
    14.0883  14.2197  14.2338  14.3488  14.4909

          k = 0.5015 0.3220-0.4937 (  5912 PWs)   bands (ev):

   -31.3888 -31.3719 -31.0425 -13.3432 -12.7719 -12.7550 -12.6526 -12.6071
   -12.3398 -12.2430 -12.2420 -12.1914 -12.1360 -11.7743 -10.5595 -10.2662
   -10.1744 -10.1528 -10.0004  -9.9626  -0.1317   0.0050   1.8435   1.8828
     2.3325   2.3854   2.4734   2.8099   3.7342   4.1463   4.1801   4.3152
     4.4059   4.5399   5.1310   5.2383   5.3544   5.7006   5.9091   6.3390
     6.3778   6.4270   6.4448   6.7346  13.4092  13.5117  13.5487  13.9120
    14.1245  14.2365  14.3247  14.5513  14.8100

          k =-0.0000 0.3869-0.0000 (  5904 PWs)   bands (ev):

   -31.3995 -31.3616 -31.0425 -13.2192 -13.0076 -12.6054 -12.5968 -12.4831
   -12.4568 -12.3482 -12.2307 -12.1986 -12.0513 -11.8913 -10.3821 -10.2733
   -10.2056 -10.1932 -10.0992  -9.8984  -0.5418  -0.3511   1.9095   2.0540
     2.1232   2.3043   2.5297   2.6491   3.7272   4.0733   4.2074   4.6597
     4.8042   4.9827   5.0423   5.2958   5.7938   5.8476   6.1178   6.3501
     6.3677   6.4545   6.5958   6.7507  12.9201  13.2248  13.2787  13.8372
    14.0882  14.2198  14.2330  14.3491  14.4910

          k =-0.2507 0.2259 0.2468 (  5920 PWs)   bands (ev):

   -31.3995 -31.3616 -31.0425 -13.2288 -13.0466 -12.6217 -12.6021 -12.4944
   -12.3628 -12.3475 -12.2828 -12.1779 -11.9928 -11.8868 -10.3837 -10.2856
   -10.1904 -10.1860 -10.1220  -9.9431  -0.4885  -0.3131   1.7878   2.0047
     2.1295   2.4063   2.5577   2.6019   3.7869   4.0507   4.2237   4.7313
     4.7736   4.8894   5.0211   5.2531   5.6950   5.8170   6.1987   6.2730
     6.3792   6.5837   6.6206   6.7846  12.9187  13.1326  13.3456  13.9128
    14.0208  14.1724  14.2589  14.3322  14.5538

          k = 0.5015 0.7089-0.4937 (  5924 PWs)   bands (ev):

   -31.3888 -31.3719 -31.0425 -13.3041 -13.0236 -12.6889 -12.6079 -12.4892
   -12.4003 -12.2510 -12.2378 -12.1575 -12.0097 -11.8663 -10.4492 -10.2767
   -10.2088 -10.1776 -10.0410  -9.9972  -0.0342   0.0733   1.5661   1.8570
     2.2141   2.5187   2.6174   2.7441   3.7013   4.0581   4.2107   4.3491
     4.5326   4.8421   4.9246   5.2479   5.5114   5.6285   5.7562   6.0985
     6.3803   6.5304   6.5528   6.6897  13.2262  13.4103  13.8542  13.9395
    14.1488  14.1883  14.3723  14.5339  14.5766

          k = 0.2507 0.5479-0.2468 (  5915 PWs)   bands (ev):

   -31.3888 -31.3719 -31.0425 -13.3146 -12.8749 -12.7376 -12.6598 -12.5042
   -12.4498 -12.2619 -12.2357 -12.1574 -11.9952 -11.8801 -10.4858 -10.2485
   -10.2369 -10.1296 -10.0635  -9.9376  -0.1053   0.0087   1.7133   1.8328
     2.3092   2.4640   2.5925   2.7556   3.6015   4.0798   4.1696   4.4065
     4.4756   4.9678   5.0909   5.2003   5.5141   5.6256   5.7445   6.0855
     6.3861   6.4463   6.5407   6.6266  13.3205  13.4822  13.8340  13.9749
    13.9974  14.2212  14.4656  14.5874  14.6183

          k = 0.0000-0.7739 0.0000 (  5912 PWs)   bands (ev):

   -31.3888 -31.3719 -31.0425 -13.3432 -12.7719 -12.7550 -12.6526 -12.6071
   -12.3398 -12.2430 -12.2420 -12.1914 -12.1360 -11.7743 -10.5595 -10.2662
   -10.1744 -10.1528 -10.0004  -9.9626  -0.1317   0.0050   1.8435   1.8828
     2.3325   2.3854   2.4733   2.8099   3.7342   4.1463   4.1801   4.3152
     4.4059   4.5399   5.1310   5.2383   5.3544   5.7006   5.9091   6.3390
     6.3778   6.4270   6.4448   6.7346  13.4092  13.5117  13.5487  13.9120
    14.1243  14.2365  14.3247  14.5514  14.8111

          k =-0.2507-0.9349 0.2469 (  5924 PWs)   bands (ev):

   -31.3888 -31.3719 -31.0425 -13.3041 -13.0236 -12.6889 -12.6079 -12.4892
   -12.4003 -12.2510 -12.2378 -12.1575 -12.0097 -11.8663 -10.4492 -10.2766
   -10.2088 -10.1777 -10.0410  -9.9972  -0.0342   0.0733   1.5661   1.8570
     2.2141   2.5187   2.6174   2.7441   3.7013   4.0581   4.2107   4.3491
     4.5326   4.8421   4.9246   5.2479   5.5114   5.6285   5.7562   6.0985
     6.3803   6.5304   6.5528   6.6897  13.2262  13.4103  13.8542  13.9395
    14.1488  14.1883  14.3722  14.5335  14.5746

          k = 0.5015-0.4519-0.4937 (  5910 PWs)   bands (ev):

   -31.3887 -31.3719 -31.0426 -13.2546 -13.1648 -12.6823 -12.5166 -12.4774
   -12.3488 -12.3276 -12.1641 -12.1592 -12.1094 -11.7967 -10.3744 -10.2786
   -10.2626 -10.1499 -10.0911 -10.0420   0.0283   0.1367   1.3680   1.9517
     2.2862   2.3649   2.6841   2.8128   3.8517   3.8631   4.4224   4.4411
     4.6005   4.6281   4.7536   4.8673   5.4692   5.6510   5.8966   6.2036
     6.3546   6.4779   6.7579   6.7585  13.2487  13.5094  13.6711  13.8657
    14.1087  14.1417  14.2445  14.4713  14.5587

          k = 0.3518-0.1610-0.0000 (  5904 PWs)   bands (ev):

   -31.3995 -31.3616 -31.0425 -13.2192 -13.0076 -12.6054 -12.5968 -12.4831
   -12.4568 -12.3482 -12.2307 -12.1986 -12.0513 -11.8913 -10.3821 -10.2733
   -10.2056 -10.1932 -10.0992  -9.8984  -0.5418  -0.3511   1.9095   2.0540
     2.1232   2.3043   2.5297   2.6491   3.7272   4.0733   4.2074   4.6597
     4.8042   4.9827   5.0423   5.2958   5.7938   5.8476   6.1178   6.3501
     6.3677   6.4545   6.5958   6.7507  12.9201  13.2248  13.2787  13.8373
    14.0886  14.2197  14.2330  14.3494  14.4907

          k = 0.1011-0.3220 0.2468 (  5920 PWs)   bands (ev):

   -31.3995 -31.3616 -31.0425 -13.2288 -13.0466 -12.6217 -12.6021 -12.4944
   -12.3628 -12.3475 -12.2828 -12.1779 -11.9928 -11.8868 -10.3837 -10.2856
   -10.1904 -10.1860 -10.1220  -9.9431  -0.4885  -0.3131   1.7878   2.0047
     2.1295   2.4063   2.5577   2.6019   3.7869   4.0507   4.2237   4.7313
     4.7736   4.8894   5.0211   5.2531   5.6950   5.8170   6.1987   6.2730
     6.3792   6.5837   6.6206   6.7846  12.9187  13.1326  13.3456  13.9129
    14.0209  14.1726  14.2593  14.3323  14.5544

          k = 0.8533 0.1610-0.4937 (  5924 PWs)   bands (ev):

   -31.3888 -31.3719 -31.0425 -13.3041 -13.0236 -12.6889 -12.6079 -12.4892
   -12.4003 -12.2510 -12.2378 -12.1575 -12.0097 -11.8663 -10.4492 -10.2767
   -10.2088 -10.1776 -10.0410  -9.9972  -0.0342   0.0733   1.5661   1.8570
     2.2141   2.5187   2.6174   2.7441   3.7013   4.0581   4.2107   4.3491
     4.5326   4.8421   4.9246   5.2479   5.5114   5.6285   5.7562   6.0985
     6.3803   6.5304   6.5528   6.6897  13.2262  13.4102  13.8542  13.9395
    14.1488  14.1883  14.3721  14.5338  14.5753

          k = 0.6026-0.0000-0.2468 (  5915 PWs)   bands (ev):

   -31.3888 -31.3719 -31.0425 -13.3146 -12.8749 -12.7376 -12.6598 -12.5042
   -12.4498 -12.2619 -12.2357 -12.1574 -11.9952 -11.8801 -10.4858 -10.2485
   -10.2369 -10.1296 -10.0635  -9.9376  -0.1053   0.0087   1.7133   1.8328
     2.3092   2.4640   2.5925   2.7556   3.6015   4.0798   4.1696   4.4065
     4.4756   4.9678   5.0909   5.2003   5.5141   5.6256   5.7445   6.0855
     6.3861   6.4463   6.5407   6.6266  13.3205  13.4822  13.8340  13.9749
    13.9973  14.2212  14.4657  14.5875  14.6181

          k = 0.3518 0.2259-0.0000 (  5920 PWs)   bands (ev):

   -31.3995 -31.3616 -31.0425 -13.2288 -13.0466 -12.6217 -12.6021 -12.4944
   -12.3628 -12.3475 -12.2828 -12.1779 -11.9928 -11.8868 -10.3837 -10.2856
   -10.1904 -10.1860 -10.1220  -9.9431  -0.4885  -0.3131   1.7878   2.0047
     2.1295   2.4064   2.5577   2.6019   3.7869   4.0507   4.2237   4.7313
     4.7736   4.8894   5.0211   5.2531   5.6950   5.8170   6.1987   6.2730
     6.3792   6.5837   6.6206   6.7847  12.9187  13.1326  13.3455  13.9129
    14.0208  14.1726  14.2592  14.3323  14.5539

          k = 0.1011 0.0649 0.2468 (  5894 PWs)   bands (ev):

   -31.4060 -31.3553 -31.0426 -13.2065 -13.0985 -12.5407 -12.5407 -12.5141
   -12.3875 -12.3875 -12.1899 -12.1899 -12.1517 -11.7385 -10.3420 -10.3420
   -10.2026 -10.1727 -10.1726  -9.9709  -0.7565  -0.5497   1.9037   1.9620
     1.9620   2.4473   2.4473   2.5106   4.0617   4.0618   4.0994   4.7637
     4.7637   4.9890   4.9890   5.5355   5.9380   5.9380   6.5175   6.5175
     6.6465   6.7546   6.7546   6.9171  12.6565  12.6565  12.7719  13.7589
    13.7928  13.7928  13.9776  14.3839  14.3840

          k = 0.8533 0.5479-0.4937 (  5902 PWs)   bands (ev):

   -31.3994 -31.3616 -31.0426 -13.2465 -13.1519 -12.6078 -12.5959 -12.4171
   -12.3505 -12.3075 -12.2246 -12.1921 -12.0071 -11.8585 -10.3586 -10.3253
   -10.2553 -10.1412 -10.1254 -10.0162  -0.3637  -0.2488   1.8080   1.9497
     2.0934   2.1398   2.5854   2.7627   3.8443   4.1847   4.2147   4.5652
     4.5771   4.8546   4.9768   5.2385   5.5721   5.8112   6.1700   6.5003
     6.5058   6.5861   6.6547   6.8626  12.7221  13.0135  13.5364  13.8248
    14.1555  14.1780  14.3412  14.3997  14.4155

          k = 0.6026 0.3869-0.2469 (  5921 PWs)   bands (ev):

   -31.3888 -31.3719 -31.0425 -13.3206 -12.9989 -12.6681 -12.6416 -12.4653
   -12.3336 -12.3330 -12.1839 -12.1779 -12.1201 -11.7861 -10.4964 -10.2724
   -10.1775 -10.1513 -10.0622  -9.9972  -0.0508   0.0616   1.5643   1.9413
     2.2926   2.3462   2.7485   2.7549   3.7553   3.8855   4.2979   4.3585
     4.5849   4.5911   4.8975   5.1648   5.4203   5.6690   5.8888   6.2512
     6.3352   6.4748   6.6023   6.7672  13.4111  13.5016  13.5043  13.8762
    14.1165  14.2334  14.3008  14.5303  14.5577

          k = 0.3518-0.9349 0.0000 (  5924 PWs)   bands (ev):

   -31.3888 -31.3719 -31.0425 -13.3041 -13.0236 -12.6889 -12.6079 -12.4892
   -12.4003 -12.2510 -12.2378 -12.1575 -12.0097 -11.8663 -10.4492 -10.2767
   -10.2088 -10.1777 -10.0410  -9.9972  -0.0342   0.0733   1.5661   1.8570
     2.2141   2.5187   2.6174   2.7441   3.7013   4.0581   4.2107   4.3491
     4.5326   4.8421   4.9246   5.2479   5.5114   5.6285   5.7562   6.0985
     6.3803   6.5304   6.5528   6.6897  13.2262  13.4103  13.8542  13.9395
    14.1488  14.1883  14.3721  14.5338  14.5750

          k = 0.1011-1.0959 0.2468 (  5902 PWs)   bands (ev):

   -31.3994 -31.3616 -31.0426 -13.2465 -13.1519 -12.6078 -12.5959 -12.4171
   -12.3505 -12.3075 -12.2246 -12.1921 -12.0071 -11.8585 -10.3586 -10.3253
   -10.2554 -10.1412 -10.1254 -10.0162  -0.3637  -0.2488   1.8080   1.9497
     2.0934   2.1398   2.5854   2.7627   3.8443   4.1847   4.2147   4.5652
     4.5771   4.8546   4.9768   5.2385   5.5721   5.8112   6.1700   6.5003
     6.5059   6.5861   6.6547   6.8626  12.7221  13.0135  13.5364  13.8248
    14.1550  14.1780  14.3410  14.3997  14.4156

          k = 0.8533-0.6129-0.4937 (  5905 PWs)   bands (ev):

   -31.3993 -31.3616 -31.0427 -13.2333 -13.2044 -12.6238 -12.5564 -12.4421
   -12.3494 -12.3010 -12.2466 -12.1719 -11.9242 -11.8568 -10.3486 -10.3327
   -10.2532 -10.1503 -10.1390 -10.0617  -0.2985  -0.2101   1.6870   1.8541
     2.1489   2.2244   2.5372   2.7935   3.9045   4.1717   4.2655   4.4854
     4.6401   4.9182   4.9458   4.9997   5.6193   5.7203   6.2282   6.4420
     6.5057   6.6569   6.7424   6.8891  12.7064  12.9173  13.6725  13.9393
    14.0256  14.0796  14.2659  14.3710  14.5655

          k = 0.6026-0.7739-0.2468 (  5912 PWs)   bands (ev):

   -31.3887 -31.3719 -31.0426 -13.2902 -13.1089 -12.6868 -12.6186 -12.4077
   -12.3852 -12.2527 -12.2156 -12.1654 -11.9958 -11.8745 -10.3704 -10.2892
   -10.2774 -10.1692 -10.0633 -10.0293   0.0463   0.1396   1.4986   1.7274
     2.2039   2.5461   2.6012   2.8347   3.7548   3.9667   4.2479   4.3241
     4.5179   4.7970   4.9940   5.0832   5.5368   5.6021   5.8003   6.0786
     6.4060   6.5784   6.5969   6.7273  13.1372  13.3564  13.7871  14.0536
    14.0783  14.3313  14.3389  14.3748  14.5830

          k = 0.3518-0.5479-0.0000 (  5915 PWs)   bands (ev):

   -31.3888 -31.3719 -31.0425 -13.3146 -12.8749 -12.7376 -12.6598 -12.5042
   -12.4498 -12.2619 -12.2357 -12.1574 -11.9952 -11.8801 -10.4859 -10.2484
   -10.2369 -10.1296 -10.0635  -9.9376  -0.1053   0.0087   1.7132   1.8328
     2.3092   2.4640   2.5925   2.7556   3.6015   4.0798   4.1696   4.4065
     4.4756   4.9678   5.0909   5.2003   5.5141   5.6256   5.7445   6.0855
     6.3861   6.4463   6.5407   6.6266  13.3205  13.4822  13.8340  13.9749
    13.9973  14.2212  14.4658  14.5873  14.6184

          k = 0.1011-0.7089 0.2468 (  5921 PWs)   bands (ev):

   -31.3888 -31.3719 -31.0425 -13.3206 -12.9989 -12.6681 -12.6416 -12.4653
   -12.3336 -12.3330 -12.1839 -12.1779 -12.1201 -11.7861 -10.4964 -10.2724
   -10.1775 -10.1513 -10.0622  -9.9972  -0.0508   0.0616   1.5643   1.9413
     2.2926   2.3462   2.7485   2.7549   3.7553   3.8854   4.2979   4.3585
     4.5849   4.5911   4.8974   5.1648   5.4203   5.6690   5.8888   6.2512
     6.3352   6.4748   6.6023   6.7672  13.4111  13.5016  13.5043  13.8762
    14.1166  14.2338  14.3008  14.5296  14.5582

          k = 0.8533-0.2259-0.4937 (  5912 PWs)   bands (ev):

   -31.3887 -31.3719 -31.0426 -13.2902 -13.1089 -12.6868 -12.6186 -12.4077
   -12.3852 -12.2527 -12.2156 -12.1654 -11.9958 -11.8745 -10.3705 -10.2892
   -10.2774 -10.1692 -10.0633 -10.0294   0.0463   0.1396   1.4986   1.7274
     2.2039   2.5461   2.6012   2.8347   3.7548   3.9667   4.2479   4.3241
     4.5179   4.7970   4.9940   5.0832   5.5368   5.6021   5.8004   6.0786
     6.4060   6.5784   6.5969   6.7273  13.1372  13.3564  13.7872  14.0537
    14.0783  14.3313  14.3389  14.3748  14.5829

          k = 0.6026-0.3869-0.2468 (  5921 PWs)   bands (ev):

   -31.3888 -31.3719 -31.0425 -13.3206 -12.9989 -12.6681 -12.6416 -12.4653
   -12.3336 -12.3330 -12.1839 -12.1779 -12.1201 -11.7861 -10.4964 -10.2724
   -10.1775 -10.1513 -10.0622  -9.9972  -0.0508   0.0616   1.5643   1.9413
     2.2926   2.3462   2.7485   2.7549   3.7553   3.8854   4.2979   4.3585
     4.5849   4.5911   4.8974   5.1648   5.4203   5.6690   5.8888   6.2512
     6.3352   6.4748   6.6023   6.7672  13.4111  13.5016  13.5043  13.8762
    14.1166  14.2334  14.3001  14.5296  14.5577

          k =-0.7037 0.3220 0.0000 (  5912 PWs)   bands (ev):

   -31.3888 -31.3719 -31.0425 -13.3432 -12.7719 -12.7550 -12.6526 -12.6071
   -12.3398 -12.2430 -12.2420 -12.1914 -12.1360 -11.7743 -10.5595 -10.2662
   -10.1744 -10.1528 -10.0004  -9.9626  -0.1317   0.0050   1.8435   1.8828
     2.3325   2.3854   2.4733   2.8099   3.7342   4.1463   4.1801   4.3152
     4.4059   4.5399   5.1310   5.2383   5.3544   5.7006   5.9091   6.3390
     6.3778   6.4270   6.4448   6.7346  13.4092  13.5117  13.5487  13.9120
    14.1245  14.2365  14.3247  14.5513  14.8053

          k =-0.9544 0.1610 0.2469 (  5924 PWs)   bands (ev):

   -31.3888 -31.3719 -31.0425 -13.3041 -13.0236 -12.6889 -12.6079 -12.4892
   -12.4003 -12.2510 -12.2378 -12.1575 -12.0097 -11.8663 -10.4492 -10.2766
   -10.2088 -10.1777 -10.0410  -9.9972  -0.0342   0.0733   1.5661   1.8570
     2.2141   2.5187   2.6174   2.7441   3.7013   4.0581   4.2107   4.3491
     4.5326   4.8421   4.9246   5.2479   5.5114   5.6285   5.7562   6.0985
     6.3803   6.5304   6.5528   6.6897  13.2262  13.4103  13.8542  13.9395
    14.1488  14.1883  14.3721  14.5337  14.5755

          k =-0.2022 0.6440-0.4937 (  5910 PWs)   bands (ev):

   -31.3887 -31.3719 -31.0426 -13.2546 -13.1648 -12.6823 -12.5166 -12.4774
   -12.3488 -12.3276 -12.1641 -12.1592 -12.1094 -11.7967 -10.3744 -10.2786
   -10.2626 -10.1499 -10.0911 -10.0420   0.0283   0.1367   1.3680   1.9517
     2.2862   2.3649   2.6841   2.8128   3.8517   3.8631   4.4224   4.4411
     4.6005   4.6281   4.7536   4.8673   5.4692   5.6510   5.8966   6.2036
     6.3546   6.4779   6.7579   6.7585  13.2487  13.5093  13.6711  13.8657
    14.1087  14.1417  14.2444  14.4713  14.5577

          k =-0.7037 0.7089 0.0000 (  5924 PWs)   bands (ev):

   -31.3888 -31.3719 -31.0425 -13.3041 -13.0236 -12.6889 -12.6079 -12.4892
   -12.4003 -12.2510 -12.2378 -12.1575 -12.0097 -11.8663 -10.4492 -10.2767
   -10.2088 -10.1777 -10.0410  -9.9972  -0.0342   0.0733   1.5661   1.8570
     2.2141   2.5187   2.6174   2.7441   3.7013   4.0581   4.2107   4.3491
     4.5326   4.8421   4.9246   5.2479   5.5114   5.6285   5.7562   6.0985
     6.3803   6.5304   6.5528   6.6897  13.2262  13.4102  13.8542  13.9395
    14.1487  14.1883  14.3714  14.5335  14.5740

          k =-0.9544 0.5479 0.2468 (  5902 PWs)   bands (ev):

   -31.3994 -31.3616 -31.0426 -13.2465 -13.1519 -12.6078 -12.5959 -12.4171
   -12.3505 -12.3075 -12.2246 -12.1921 -12.0071 -11.8585 -10.3586 -10.3253
   -10.2554 -10.1412 -10.1254 -10.0162  -0.3637  -0.2488   1.8080   1.9497
     2.0934   2.1398   2.5854   2.7627   3.8443   4.1847   4.2147   4.5652
     4.5771   4.8546   4.9768   5.2385   5.5721   5.8112   6.1700   6.5003
     6.5059   6.5861   6.6547   6.8626  12.7221  13.0135  13.5363  13.8248
    14.1557  14.1778  14.3407  14.3996  14.4172

          k =-0.2022 1.0309-0.4937 (  5905 PWs)   bands (ev):

   -31.3993 -31.3616 -31.0427 -13.2333 -13.2044 -12.6238 -12.5564 -12.4421
   -12.3494 -12.3010 -12.2466 -12.1719 -11.9242 -11.8568 -10.3486 -10.3327
   -10.2532 -10.1503 -10.1390 -10.0617  -0.2985  -0.2101   1.6870   1.8541
     2.1489   2.2244   2.5372   2.7935   3.9045   4.1717   4.2655   4.4854
     4.6401   4.9182   4.9458   4.9997   5.6193   5.7203   6.2282   6.4420
     6.5057   6.6569   6.7424   6.8891  12.7064  12.9173  13.6727  13.9391
    14.0255  14.0792  14.2659  14.3689  14.5712

          k =-0.4530 0.8699-0.2468 (  5912 PWs)   bands (ev):

   -31.3887 -31.3719 -31.0426 -13.2902 -13.1089 -12.6868 -12.6186 -12.4077
   -12.3852 -12.2527 -12.2156 -12.1654 -11.9958 -11.8745 -10.3704 -10.2892
   -10.2774 -10.1692 -10.0633 -10.0293   0.0463   0.1396   1.4986   1.7274
     2.2039   2.5461   2.6012   2.8347   3.7548   3.9667   4.2479   4.3241
     4.5179   4.7970   4.9940   5.0832   5.5368   5.6021   5.8004   6.0786
     6.4060   6.5784   6.5969   6.7273  13.1372  13.3564  13.7869  14.0536
    14.0783  14.3309  14.3389  14.3748  14.5829

          k =-0.7037-0.4519 0.0000 (  5910 PWs)   bands (ev):

   -31.3887 -31.3719 -31.0426 -13.2546 -13.1648 -12.6823 -12.5166 -12.4774
   -12.3488 -12.3276 -12.1641 -12.1592 -12.1094 -11.7967 -10.3744 -10.2786
   -10.2626 -10.1499 -10.0911 -10.0420   0.0283   0.1367   1.3680   1.9517
     2.2862   2.3649   2.6840   2.8128   3.8517   3.8631   4.4224   4.4411
     4.6005   4.6281   4.7536   4.8673   5.4692   5.6510   5.8966   6.2036
     6.3546   6.4779   6.7579   6.7585  13.2487  13.5094  13.6711  13.8657
    14.1087  14.1417  14.2444  14.4712  14.5576

          k =-0.9544-0.6129 0.2469 (  5905 PWs)   bands (ev):

   -31.3993 -31.3616 -31.0427 -13.2333 -13.2044 -12.6238 -12.5563 -12.4421
   -12.3494 -12.3010 -12.2466 -12.1719 -11.9242 -11.8568 -10.3486 -10.3327
   -10.2532 -10.1503 -10.1390 -10.0617  -0.2985  -0.2101   1.6870   1.8541
     2.1489   2.2244   2.5372   2.7935   3.9045   4.1717   4.2655   4.4855
     4.6401   4.9182   4.9458   4.9997   5.6193   5.7203   6.2282   6.4420
     6.5057   6.6569   6.7424   6.8891  12.7064  12.9173  13.6725  13.9394
    14.0256  14.0786  14.2660  14.3705  14.5645

          k =-0.2022-0.1299-0.4936 (  5858 PWs)   bands (ev):

   -31.4059 -31.3554 -31.0427 -13.2709 -13.1728 -12.5450 -12.5450 -12.4238
   -12.3853 -12.3853 -12.1860 -12.1860 -11.9590 -11.7449 -10.3765 -10.3765
   -10.2211 -10.1380 -10.1379 -10.1343  -0.5495  -0.5189   1.7152   1.9679
     1.9679   2.4013   2.4013   2.5782   4.1570   4.1570   4.3469   4.5773
     4.5773   4.9843   4.9920   4.9920   5.9038   5.9038   6.6245   6.6245
     6.6557   6.9072   6.9419   6.9419  12.5000  12.5000  13.3792  13.5648
    13.6309  13.6310  13.9879  14.4332  14.4333

     the Fermi energy is     9.1360 ev

!    total energy              =    -846.51485445 Ry

     total all-electron energy =     -6656.429919 Ry
     estimated scf accuracy    <          3.3E-09 Ry
     smearing contrib. (-TS)   =      -0.00000000 Ry
     internal energy E=F+TS    =    -846.51485445 Ry

     The total energy is F=E-TS. E is the sum of the following terms:
     one-electron contribution =    -113.61301240 Ry
     hartree contribution      =     109.01048413 Ry
     xc contribution           =    -106.05272308 Ry
     ewald contribution        =    -395.89144797 Ry
     one-center paw contrib.   =    -339.96815514 Ry

     convergence has been achieved in  15 iterations

     Forces acting on atoms (cartesian axes, Ry/au):

     atom    1 type  1   force =     0.00000000    0.00000000    0.00000000
     atom    2 type  1   force =     0.00075024    0.00048196    0.00183183
     atom    3 type  1   force =    -0.00075024   -0.00048196   -0.00183183
     atom    4 type  2   force =    -0.00237539   -0.00152684   -0.00579739
     atom    5 type  2   force =     0.00237539    0.00152684    0.00579739
     atom    6 type  3   force =    -0.01621387   -0.01041148    0.02175000
     atom    7 type  3   force =     0.00168940    0.02871233    0.00412348
     atom    8 type  3   force =     0.02681285   -0.01041132    0.00412367
     atom    9 type  3   force =    -0.02681285    0.01041132   -0.00412367
     atom   10 type  3   force =     0.01621387    0.01041148   -0.02175000
     atom   11 type  3   force =     0.01351393    0.00867792    0.03298743
     atom   12 type  3   force =    -0.01351393   -0.00867792   -0.03298743
     atom   13 type  3   force =    -0.00168940   -0.02871233   -0.00412348

     Total force =     0.088598     Total SCF correction =     0.000170


     Computing stress (Cartesian axis) and pressure

          total   stress  (Ry/bohr**3)                   (kbar)     P=      -21.98
  -0.00012655  -0.00001007  -0.00003830          -18.62       -1.48       -5.63
  -0.00001007  -0.00011732  -0.00002459           -1.48      -17.26       -3.62
  -0.00003830  -0.00002459  -0.00020435           -5.63       -3.62      -30.06

     Energy error            =      7.1E-03
     Gradient error          =      3.3E-02
     Cell gradient error     =      2.0E-04


     number of scf cycles    =   2
     number of bfgs steps    =   1

     enthalpy old            =    -846.5077520803 Ry
     enthalpy new            =    -846.5148544533 Ry

     CASE: enthalpy_new < enthalpy_old

     new trust radius        =       0.0237737619 bohr
     new conv_thr            =       0.0000000100 Ry

     new unit-cell volume =   1022.73190 a.u.^3 (   151.55323 Ang^3 )
     density =      3.39851 g/cm^3

CELL_PARAMETERS (angstrom)
   4.888707376  -0.002770766   4.959381956
   2.031631523   4.446566905   4.959382105
  -0.004315877  -0.002771588   6.963831647

ATOMIC_POSITIONS (angstrom)
Ca            0.0000000000        0.0000000000        0.0000000000
Ca            1.4054637639        0.9024982710        3.4308558174
Ca            5.5105592579        3.5385262797       13.4517398903
P             2.8007543329        1.7984640906        6.8368767005
P             4.1152686890        2.6425604601       10.0457190072
O             5.0373033386        3.2346318029        8.9254199721
O             4.0532276410        1.0840434452        9.8942708218
O             2.6722590571        3.2346311059        9.8942709443
O             4.2437639648        1.2063934449        6.9883247634
O             1.8787196832        1.2063927479        7.9571757356
O             2.2337146850        1.4343478660        5.4526849408
O             4.6823083369        3.0066766847       11.4299107669
O             2.8627953809        3.3569811055        6.9883248859



     Writing output data file ./out2/Ca3O8P2.save/
     NEW-OLD atomic charge density approx. for the potential

     Check: negative core charge=   -0.000003
     extrapolated charge   87.44937, renormalised to   88.00000

     total cpu time spent up to now is     2240.0 secs

     Self-consistent Calculation

     iteration #  1     ecut=    50.00 Ry     beta= 0.30
     Davidson diagonalization with overlap
     ethr =  1.00E-06,  avg # of iterations =  9.4

     total cpu time spent up to now is     2360.6 secs

     total energy              =    -846.51028323 Ry
     estimated scf accuracy    <       0.01031172 Ry

     iteration #  2     ecut=    50.00 Ry     beta= 0.30
     Davidson diagonalization with overlap
     ethr =  1.17E-05,  avg # of iterations =  3.0

     total cpu time spent up to now is     2418.2 secs

     total energy              =    -846.51873279 Ry
     estimated scf accuracy    <       0.00313525 Ry

     iteration #  3     ecut=    50.00 Ry     beta= 0.30
     Davidson diagonalization with overlap
     ethr =  3.56E-06,  avg # of iterations =  2.1

     total cpu time spent up to now is     2465.0 secs

     total energy              =    -846.51758806 Ry
     estimated scf accuracy    <       0.00157437 Ry

     iteration #  4     ecut=    50.00 Ry     beta= 0.30
     Davidson diagonalization with overlap
     ethr =  1.79E-06,  avg # of iterations =  4.0

     total cpu time spent up to now is     2521.7 secs

     total energy              =    -846.51826340 Ry
     estimated scf accuracy    <       0.00088772 Ry

     iteration #  5     ecut=    50.00 Ry     beta= 0.30
     Davidson diagonalization with overlap
     ethr =  1.01E-06,  avg # of iterations =  2.0

     total cpu time spent up to now is     2568.7 secs

     total energy              =    -846.51837865 Ry
     estimated scf accuracy    <       0.00003780 Ry

     iteration #  6     ecut=    50.00 Ry     beta= 0.30
     Davidson diagonalization with overlap
     ethr =  4.29E-08,  avg # of iterations =  7.9

     total cpu time spent up to now is     2676.3 secs

     total energy              =    -846.51835395 Ry
     estimated scf accuracy    <       0.00042497 Ry

     iteration #  7     ecut=    50.00 Ry     beta= 0.30
     Davidson diagonalization with overlap
     ethr =  4.29E-08,  avg # of iterations =  5.6

     total cpu time spent up to now is     2752.8 secs

     total energy              =    -846.51841165 Ry
     estimated scf accuracy    <       0.00000970 Ry

     iteration #  8     ecut=    50.00 Ry     beta= 0.30
     Davidson diagonalization with overlap
     ethr =  1.10E-08,  avg # of iterations =  4.5

     total cpu time spent up to now is     2815.5 secs

     total energy              =    -846.51841579 Ry
     estimated scf accuracy    <       0.00000759 Ry

     iteration #  9     ecut=    50.00 Ry     beta= 0.30
     Davidson diagonalization with overlap
     ethr =  8.62E-09,  avg # of iterations =  2.0

     total cpu time spent up to now is     2865.1 secs

     total energy              =    -846.51841736 Ry
     estimated scf accuracy    <       0.00000003 Ry

     iteration # 10     ecut=    50.00 Ry     beta= 0.30
     Davidson diagonalization with overlap
     ethr =  3.32E-11,  avg # of iterations = 10.0

     total cpu time spent up to now is     2995.0 secs

     total energy              =    -846.51841762 Ry
     estimated scf accuracy    <       0.00000008 Ry

     iteration # 11     ecut=    50.00 Ry     beta= 0.30
     Davidson diagonalization with overlap
     ethr =  3.32E-11,  avg # of iterations =  2.0

     total cpu time spent up to now is     3042.1 secs

     total energy              =    -846.51841755 Ry
     estimated scf accuracy    <       0.00000017 Ry

     iteration # 12     ecut=    50.00 Ry     beta= 0.30
     Davidson diagonalization with overlap
     ethr =  3.32E-11,  avg # of iterations =  4.0

     total cpu time spent up to now is     3102.2 secs

     total energy              =    -846.51841757 Ry
     estimated scf accuracy    <       0.00000001 Ry

     iteration # 13     ecut=    50.00 Ry     beta= 0.30
     Davidson diagonalization with overlap
     ethr =  1.26E-11,  avg # of iterations =  2.0

     total cpu time spent up to now is     3148.6 secs

     End of self-consistent calculation

          k = 0.0000 0.0000 0.0000 (  5949 PWs)   bands (ev):

   -31.3447 -31.2929 -30.9635 -13.1156 -13.0796 -12.4849 -12.4753 -12.4753
   -12.3740 -12.3286 -12.3286 -12.1217 -12.1217 -11.7017 -10.2471 -10.2471
   -10.2167 -10.2167 -10.1700  -9.8749  -0.7911  -0.4845   1.9866   1.9866
     2.2353   2.3430   2.5376   2.5376   4.0283   4.0283   4.0995   4.8441
     4.8441   5.1403   5.1403   5.9773   6.0124   6.0124   6.5213   6.5213
     6.5640   6.5640   6.7090   6.9984  12.5525  12.8751  12.8751  13.7807
    14.0373  14.1775  14.1775  14.2782  14.2782

          k =-0.2510-0.1612 0.2474 (  5904 PWs)   bands (ev):

   -31.3379 -31.2993 -30.9634 -13.2525 -13.0061 -12.5464 -12.5347 -12.4618
   -12.3985 -12.2858 -12.1727 -12.1266 -11.9963 -11.8434 -10.3536 -10.2494
   -10.1923 -10.1648 -10.1116  -9.9120  -0.4268  -0.2228   1.9486   2.1041
     2.1503   2.3481   2.5732   2.6906   3.7573   4.1002   4.2414   4.7013
     4.8199   5.0035   5.0901   5.3309   5.8295   5.9004   6.1720   6.4225
     6.4384   6.5342   6.6720   6.8243  12.9970  13.2941  13.3907  13.9384
    14.2361  14.2826  14.3805  14.4625  14.5693

          k = 0.5020 0.3224-0.4947 (  5912 PWs)   bands (ev):

   -31.3270 -31.3098 -30.9634 -13.3643 -12.8042 -12.6994 -12.5945 -12.5571
   -12.2776 -12.1993 -12.1829 -12.1192 -12.0641 -11.7340 -10.5317 -10.2420
   -10.1725 -10.1235  -9.9882  -9.9819  -0.0165   0.1274   1.8929   1.9360
     2.3559   2.4294   2.5134   2.8481   3.7631   4.1799   4.2249   4.3367
     4.4507   4.5836   5.1503   5.3106   5.3710   5.7524   5.9454   6.4124
     6.4530   6.5063   6.5066   6.8165  13.4982  13.5719  13.6209  13.9971
    14.2260  14.3196  14.3927  14.6285  14.8747

          k = 0.0001 0.3875 0.0002 (  5904 PWs)   bands (ev):

   -31.3379 -31.2993 -30.9634 -13.2525 -13.0061 -12.5464 -12.5347 -12.4618
   -12.3985 -12.2858 -12.1727 -12.1266 -11.9963 -11.8434 -10.3536 -10.2494
   -10.1923 -10.1648 -10.1116  -9.9120  -0.4268  -0.2228   1.9486   2.1041
     2.1503   2.3481   2.5732   2.6906   3.7573   4.1002   4.2414   4.7013
     4.8199   5.0035   5.0901   5.3309   5.8295   5.9004   6.1720   6.4225
     6.4384   6.5342   6.6720   6.8243  12.9970  13.2941  13.3907  13.9384
    14.2361  14.2827  14.3806  14.4625  14.5693

          k =-0.2510 0.2263 0.2475 (  5920 PWs)   bands (ev):

   -31.3378 -31.2993 -30.9635 -13.2566 -13.0545 -12.5631 -12.5478 -12.4349
   -12.3237 -12.2851 -12.2229 -12.1051 -11.9406 -11.8454 -10.3546 -10.2621
   -10.1789 -10.1576 -10.1301  -9.9595  -0.3726  -0.1858   1.8308   2.0516
     2.1557   2.4479   2.6037   2.6432   3.8189   4.0777   4.2589   4.7586
     4.8087   4.9313   5.0363   5.2887   5.7353   5.8698   6.2664   6.3427
     6.4486   6.6612   6.6935   6.8545  12.9920  13.2055  13.4581  14.0224
    14.1330  14.2338  14.3967  14.4682  14.6286

          k = 0.5021 0.7099-0.4945 (  5924 PWs)   bands (ev):

   -31.3270 -31.3098 -30.9634 -13.3228 -13.0352 -12.6348 -12.5566 -12.4342
   -12.3423 -12.1898 -12.1839 -12.0865 -11.9651 -11.8264 -10.4206 -10.2524
   -10.1847 -10.1628 -10.0368 -10.0159   0.0844   0.1947   1.6138   1.9115
     2.2522   2.5509   2.6502   2.7822   3.7353   4.0974   4.2443   4.3773
     4.5789   4.8697   4.9621   5.2670   5.5457   5.6882   5.8209   6.1775
     6.4424   6.6085   6.6270   6.7621  13.2906  13.4872  13.9325  14.0419
    14.2270  14.2706  14.4629  14.6112  14.6577

          k = 0.2511 0.5487-0.2472 (  5915 PWs)   bands (ev):

   -31.3270 -31.3098 -30.9634 -13.3362 -12.8907 -12.6972 -12.5990 -12.4512
   -12.3901 -12.2037 -12.1744 -12.0859 -11.9445 -11.8394 -10.4569 -10.2233
   -10.2116 -10.1071 -10.0847  -9.9414   0.0109   0.1310   1.7603   1.8839
     2.3518   2.5040   2.6247   2.7897   3.6338   4.1120   4.2009   4.4552
     4.5068   5.0096   5.1068   5.2223   5.5532   5.7027   5.7946   6.1577
     6.4557   6.5120   6.6223   6.7019  13.3788  13.5660  13.9384  14.0514
    14.0721  14.3243  14.5320  14.6616  14.7061

          k =-0.0001-0.7750-0.0003 (  5912 PWs)   bands (ev):

   -31.3270 -31.3098 -30.9634 -13.3643 -12.8042 -12.6994 -12.5945 -12.5571
   -12.2776 -12.1993 -12.1829 -12.1192 -12.0641 -11.7340 -10.5317 -10.2420
   -10.1725 -10.1235  -9.9882  -9.9819  -0.0165   0.1274   1.8929   1.9360
     2.3559   2.4294   2.5134   2.8481   3.7630   4.1799   4.2249   4.3367
     4.4507   4.5836   5.1503   5.3106   5.3710   5.7524   5.9453   6.4124
     6.4530   6.5063   6.5066   6.8165  13.4982  13.5719  13.6209  13.9971
    14.2261  14.3196  14.3927  14.6285  14.8746

          k =-0.2511-0.9362 0.2470 (  5924 PWs)   bands (ev):

   -31.3270 -31.3098 -30.9634 -13.3228 -13.0352 -12.6348 -12.5566 -12.4342
   -12.3423 -12.1898 -12.1839 -12.0865 -11.9651 -11.8264 -10.4206 -10.2524
   -10.1847 -10.1629 -10.0367 -10.0159   0.0844   0.1947   1.6138   1.9115
     2.2522   2.5509   2.6502   2.7822   3.7353   4.0974   4.2443   4.3773
     4.5789   4.8697   4.9621   5.2670   5.5457   5.6882   5.8209   6.1775
     6.4424   6.6085   6.6270   6.7621  13.2906  13.4872  13.9325  14.0419
    14.2270  14.2706  14.4629  14.6112  14.6581

          k = 0.5019-0.4527-0.4950 (  5910 PWs)   bands (ev):

   -31.3269 -31.3098 -30.9635 -13.2671 -13.1811 -12.6251 -12.4544 -12.4270
   -12.2886 -12.2650 -12.1005 -12.0907 -12.0892 -11.7542 -10.3430 -10.2550
   -10.2303 -10.1207 -10.1148 -10.0571   0.1496   0.2573   1.4142   2.0101
     2.3240   2.3888   2.7187   2.8517   3.8942   3.9040   4.4447   4.4679
     4.6399   4.6773   4.7890   4.8946   5.5017   5.7065   5.9663   6.2704
     6.4192   6.5593   6.8247   6.8298  13.3314  13.5674  13.7451  13.9451
    14.1851  14.2445  14.3593  14.5679  14.6359

          k = 0.3524-0.1612 0.0002 (  5904 PWs)   bands (ev):

[...]
    14.0540  14.0984  14.2804  14.4179  14.4636

          k = 0.4990-0.4509-0.4940 (  6162 PWs)   bands (ev):

   -31.5133 -31.4976 -31.1246 -13.3909 -13.3126 -12.7833 -12.6267 -12.5780
   -12.4731 -12.4543 -12.2748 -12.2513 -12.2483 -11.9145 -10.4739 -10.3841
   -10.3623 -10.2648 -10.2156 -10.1614   0.0449   0.1535   1.3319   1.9079
     2.2037   2.2814   2.5953   2.7292   3.7990   3.7990   4.3211   4.3582
     4.5362   4.5632   4.6718   4.7830   5.3749   5.5887   5.8617   6.1470
     6.3188   6.4667   6.7178   6.7210  13.1779  13.3818  13.5721  13.7762
    14.0091  14.0704  14.1874  14.4413  14.5186

          k = 0.3509-0.1603 0.0005 (  6167 PWs)   bands (ev):

   -31.5234 -31.4880 -31.1245 -13.3734 -13.1290 -12.7123 -12.7054 -12.6342
   -12.5721 -12.4729 -12.3536 -12.2794 -12.1538 -12.0010 -10.4844 -10.3875
   -10.3137 -10.2983 -10.2206 -10.0256  -0.5164  -0.3072   1.8475   2.0009
     2.0420   2.2411   2.4542   2.5776   3.6595   3.9903   4.1450   4.5759
     4.7028   4.8875   4.9698   5.2034   5.6869   5.7805   6.0608   6.3106
     6.3400   6.4352   6.5487   6.7113  12.8362  13.1247  13.2208  13.7701
    14.0634  14.1058  14.1942  14.2797  14.3639

          k = 0.1012-0.3207 0.2470 (  6162 PWs)   bands (ev):

   -31.5234 -31.4880 -31.1246 -13.3792 -13.1776 -12.7267 -12.7145 -12.6096
   -12.4953 -12.4720 -12.4037 -12.2613 -12.1022 -12.0033 -10.4843 -10.3917
   -10.3002 -10.2985 -10.2409 -10.0689  -0.4632  -0.2713   1.7323   1.9503
     2.0508   2.3366   2.4855   2.5275   3.7201   3.9701   4.1601   4.6401
     4.6960   4.8054   4.9168   5.1594   5.5962   5.7471   6.1531   6.2448
     6.3335   6.5594   6.5813   6.7381  12.8322  13.0379  13.2907  13.8491
    13.9585  14.0439  14.2069  14.2894  14.4339

          k = 0.8502 0.1603-0.4925 (  6163 PWs)   bands (ev):

   -31.5134 -31.4976 -31.1245 -13.4448 -13.1695 -12.7928 -12.7129 -12.6084
   -12.5234 -12.3703 -12.3576 -12.2470 -12.1218 -11.9917 -10.5469 -10.3876
   -10.3163 -10.2835 -10.1627 -10.1201  -0.0184   0.0928   1.5231   1.8145
     2.1398   2.4361   2.5311   2.6593   3.6379   3.9906   4.1367   4.2638
     4.4723   4.7567   4.8345   5.1375   5.4175   5.5759   5.7132   6.0661
     6.3408   6.5104   6.5284   6.6576  13.1255  13.3207  13.7699  13.8847
    14.0541  14.0985  14.2806  14.4178  14.4685

          k = 0.6005-0.0000-0.2460 (  6165 PWs)   bands (ev):

   -31.5134 -31.4976 -31.1245 -13.4573 -13.0246 -12.8510 -12.7631 -12.6220
   -12.5642 -12.3857 -12.3516 -12.2451 -12.1033 -12.0044 -10.5842 -10.3547
   -10.3483 -10.2346 -10.1885 -10.0616  -0.0905   0.0326   1.6669   1.7843
     2.2335   2.3949   2.5042   2.6661   3.5402   4.0114   4.0830   4.3465
     4.3963   4.8828   4.9873   5.0987   5.4246   5.6061   5.6757   6.0461
     6.3594   6.4068   6.5244   6.5980  13.2084  13.4087  13.7852  13.8837
    13.8894  14.1499  14.3372  14.4714  14.5154

          k = 0.3511 0.2254 0.0010 (  6162 PWs)   bands (ev):

   -31.5234 -31.4880 -31.1246 -13.3792 -13.1776 -12.7267 -12.7145 -12.6096
   -12.4953 -12.4720 -12.4037 -12.2613 -12.1022 -12.0033 -10.4843 -10.3917
   -10.3002 -10.2985 -10.2409 -10.0689  -0.4632  -0.2713   1.7323   1.9503
     2.0508   2.3366   2.4855   2.5275   3.7201   3.9701   4.1601   4.6401
     4.6960   4.8054   4.9168   5.1594   5.5962   5.7472   6.1531   6.2448
     6.3335   6.5594   6.5814   6.7381  12.8322  13.0379  13.2907  13.8491
    13.9585  14.0440  14.2071  14.2895  14.4534

          k = 0.1014 0.0651 0.2475 (  6189 PWs)   bands (ev):

   -31.5295 -31.4821 -31.1247 -13.3487 -13.2402 -12.6523 -12.6523 -12.6333
   -12.5074 -12.5074 -12.3016 -12.2727 -12.2727 -11.8629 -10.4502 -10.4502
   -10.3169 -10.2812 -10.2812 -10.0960  -0.7219  -0.4968   1.8514   1.8890
     1.8890   2.3818   2.3818   2.4513   3.9805   3.9805   4.0439   4.6693
     4.6693   4.9054   4.9055   5.4740   5.8184   5.8184   6.4771   6.4771
     6.5905   6.7157   6.7157   6.8524  12.5869  12.5869  12.7245  13.6820
    13.6820  13.7808  13.9527  14.2641  14.5220

          k = 0.8504 0.5461-0.4920 (  6168 PWs)   bands (ev):

   -31.5233 -31.4880 -31.1246 -13.3938 -13.2834 -12.7143 -12.7039 -12.5369
   -12.4749 -12.4394 -12.3388 -12.2736 -12.1265 -11.9805 -10.4602 -10.4366
   -10.3601 -10.2492 -10.2420 -10.1410  -0.3347  -0.2155   1.7593   1.8987
     2.0204   2.0615   2.5108   2.6882   3.7785   4.1129   4.1342   4.4909
     4.4926   4.7733   4.8882   5.1501   5.4939   5.6924   6.1254   6.4623
     6.4807   6.5290   6.6268   6.8277  12.6455  12.9290  13.4724  13.7274
    14.0294  14.1266  14.2665  14.3084  14.3215

          k = 0.6008 0.3858-0.2455 (  6176 PWs)   bands (ev):

   -31.5134 -31.4976 -31.1245 -13.4600 -13.1479 -12.7703 -12.7386 -12.6008
   -12.4588 -12.4493 -12.3083 -12.2611 -12.2291 -11.9091 -10.5920 -10.3835
   -10.2808 -10.2613 -10.1863 -10.1197  -0.0339   0.0813   1.5243   1.8923
     2.2142   2.2601   2.6618   2.6757   3.6848   3.8225   4.2441   4.2573
     4.5127   4.5194   4.8171   5.0784   5.3468   5.6007   5.8244   6.1992
     6.3101   6.4601   6.5604   6.7345  13.3248  13.3844  13.4275  13.7871
    14.0570  14.1454  14.1851  14.4421  14.4651

          k = 0.3505-0.9319-0.0005 (  6163 PWs)   bands (ev):

   -31.5134 -31.4976 -31.1245 -13.4448 -13.1695 -12.7928 -12.7129 -12.6084
   -12.5234 -12.3703 -12.3576 -12.2469 -12.1218 -11.9917 -10.5469 -10.3876
   -10.3163 -10.2835 -10.1627 -10.1201  -0.0184   0.0928   1.5231   1.8145
     2.1398   2.4361   2.5311   2.6593   3.6379   3.9906   4.1367   4.2638
     4.4723   4.7567   4.8345   5.1375   5.4175   5.5759   5.7132   6.0660
     6.3408   6.5104   6.5285   6.6576  13.1255  13.3207  13.7699  13.8847
    14.0540  14.0983  14.2807  14.4179  14.4693

          k = 0.1008-1.0922 0.2460 (  6168 PWs)   bands (ev):

   -31.5233 -31.4880 -31.1246 -13.3938 -13.2834 -12.7143 -12.7039 -12.5369
   -12.4749 -12.4394 -12.3388 -12.2736 -12.1265 -11.9805 -10.4602 -10.4366
   -10.3601 -10.2492 -10.2420 -10.1410  -0.3347  -0.2155   1.7593   1.8987
     2.0204   2.0615   2.5108   2.6882   3.7785   4.1129   4.1342   4.4909
     4.4926   4.7733   4.8882   5.1501   5.4939   5.6924   6.1255   6.4623
     6.4807   6.5290   6.6268   6.8277  12.6455  12.9290  13.4724  13.7274
    14.0300  14.1266  14.2666  14.3216  14.4872

          k = 0.8498-0.6112-0.4935 (  6168 PWs)   bands (ev):

   -31.5232 -31.4880 -31.1247 -13.3770 -13.3409 -12.7286 -12.6638 -12.5607
   -12.4738 -12.4177 -12.3640 -12.2559 -12.0509 -11.9875 -10.4480 -10.4399
   -10.3577 -10.2656 -10.2503 -10.1856  -0.2673  -0.1813   1.6414   1.8002
     2.0738   2.1537   2.4591   2.7176   3.8421   4.0948   4.1927   4.4043
     4.5594   4.8361   4.8798   4.8949   5.5283   5.6105   6.1874   6.4136
     6.4534   6.6162   6.7143   6.8496  12.6305  12.8371  13.6004  13.8666
    13.9472  13.9548  14.1676  14.3078  14.5511

          k = 0.6001-0.7715-0.2470 (  6174 PWs)   bands (ev):

   -31.5133 -31.4976 -31.1246 -13.4256 -13.2615 -12.7827 -12.7233 -12.5282
   -12.5092 -12.3715 -12.3283 -12.2584 -12.1258 -11.9934 -10.4700 -10.4000
   -10.3815 -10.2741 -10.1815 -10.1553   0.0638   0.1540   1.4593   1.6862
     2.1317   2.4612   2.5090   2.7525   3.6973   3.8919   4.1738   4.2541
     4.4469   4.7093   4.9156   4.9802   5.4382   5.5239   5.7682   6.0458
     6.3754   6.5569   6.5686   6.6939  13.0394  13.2595  13.7322  13.9584
    14.0379  14.2101  14.2367  14.2663  14.5362

          k = 0.3507-0.5461 0.0000 (  6165 PWs)   bands (ev):

   -31.5134 -31.4976 -31.1245 -13.4573 -13.0246 -12.8510 -12.7631 -12.6220
   -12.5642 -12.3857 -12.3516 -12.2451 -12.1033 -12.0044 -10.5842 -10.3547
   -10.3483 -10.2346 -10.1885 -10.0616  -0.0905   0.0326   1.6669   1.7843
     2.2335   2.3948   2.5042   2.6661   3.5402   4.0114   4.0830   4.3465
     4.3963   4.8828   4.9873   5.0987   5.4246   5.6061   5.6757   6.0461
     6.3594   6.4068   6.5244   6.5980  13.2084  13.4087  13.7852  13.8837
    13.8894  14.1499  14.3372  14.4713  14.5140

          k = 0.1010-0.7064 0.2465 (  6176 PWs)   bands (ev):

   -31.5134 -31.4976 -31.1245 -13.4600 -13.1479 -12.7703 -12.7386 -12.6008
   -12.4588 -12.4493 -12.3083 -12.2611 -12.2291 -11.9091 -10.5920 -10.3835
   -10.2808 -10.2613 -10.1863 -10.1197  -0.0339   0.0813   1.5243   1.8923
     2.2142   2.2601   2.6618   2.6757   3.6848   3.8225   4.2441   4.2573
     4.5127   4.5194   4.8171   5.0784   5.3468   5.6007   5.8243   6.1992
     6.3101   6.4601   6.5604   6.7345  13.3248  13.3844  13.4275  13.7871
    14.0571  14.1454  14.1872  14.4653  14.6789

          k = 0.8500-0.2254-0.4930 (  6174 PWs)   bands (ev):

   -31.5133 -31.4976 -31.1246 -13.4256 -13.2615 -12.7827 -12.7233 -12.5282
   -12.5092 -12.3715 -12.3283 -12.2584 -12.1258 -11.9934 -10.4700 -10.4000
   -10.3815 -10.2741 -10.1815 -10.1553   0.0638   0.1540   1.4593   1.6862
     2.1316   2.4612   2.5090   2.7525   3.6973   3.8919   4.1738   4.2541
     4.4469   4.7094   4.9156   4.9802   5.4382   5.5239   5.7682   6.0458
     6.3754   6.5569   6.5686   6.6939  13.0394  13.2595  13.7322  13.9584
    14.0377  14.2102  14.2355  14.2667  14.5379

          k = 0.6003-0.3858-0.2465 (  6176 PWs)   bands (ev):

   -31.5134 -31.4976 -31.1245 -13.4600 -13.1478 -12.7703 -12.7386 -12.6008
   -12.4588 -12.4493 -12.3083 -12.2611 -12.2291 -11.9091 -10.5920 -10.3835
   -10.2809 -10.2613 -10.1863 -10.1197  -0.0339   0.0813   1.5243   1.8923
     2.2142   2.2601   2.6618   2.6757   3.6848   3.8225   4.2441   4.2573
     4.5127   4.5194   4.8171   5.0784   5.3468   5.6007   5.8244   6.1992
     6.3101   6.4601   6.5604   6.7345  13.3248  13.3844  13.4275  13.7871
    14.0570  14.1455  14.1851  14.4422  14.4651

          k =-0.7017 0.3207-0.0010 (  6172 PWs)   bands (ev):

   -31.5134 -31.4976 -31.1245 -13.4839 -12.9432 -12.8519 -12.7563 -12.7269
   -12.4643 -12.3747 -12.3551 -12.2739 -12.2269 -11.9014 -10.6530 -10.3829
   -10.2828 -10.2577 -10.1219 -10.0867  -0.1140   0.0270   1.7959   1.8356
     2.2446   2.3073   2.3993   2.7246   3.6578   4.0712   4.1270   4.2135
     4.3498   4.4747   5.0247   5.2125   5.2518   5.6353   5.8157   6.2914
     6.3630   6.3994   6.4074   6.7078  13.3372  13.3973  13.4484  13.8475
    14.0410  14.1489  14.2169  14.4278  14.6654

          k =-0.9514 0.1603 0.2455 (  6163 PWs)   bands (ev):

   -31.5134 -31.4976 -31.1245 -13.4448 -13.1695 -12.7928 -12.7129 -12.6084
   -12.5234 -12.3703 -12.3576 -12.2470 -12.1218 -11.9917 -10.5469 -10.3876
   -10.3163 -10.2835 -10.1627 -10.1201  -0.0184   0.0928   1.5231   1.8145
     2.1398   2.4361   2.5311   2.6593   3.6379   3.9906   4.1367   4.2638
     4.4723   4.7567   4.8345   5.1375   5.4175   5.5759   5.7132   6.0660
     6.3408   6.5104   6.5284   6.6575  13.1255  13.3207  13.7699  13.8848
    14.0542  14.0986  14.2805  14.4180  14.4634

          k =-0.2024 0.6413-0.4940 (  6162 PWs)   bands (ev):

   -31.5133 -31.4976 -31.1246 -13.3909 -13.3126 -12.7833 -12.6267 -12.5780
   -12.4731 -12.4543 -12.2748 -12.2513 -12.2483 -11.9145 -10.4739 -10.3842
   -10.3623 -10.2648 -10.2156 -10.1614   0.0449   0.1535   1.3319   1.9079
     2.2037   2.2814   2.5953   2.7292   3.7990   3.7990   4.3211   4.3582
     4.5362   4.5632   4.6719   4.7830   5.3749   5.5887   5.8617   6.1470
     6.3188   6.4667   6.7178   6.7210  13.1779  13.3818  13.5721  13.7762
    14.0090  14.0704  14.1874  14.4411  14.5184

          k =-0.7015 0.7064-0.0005 (  6163 PWs)   bands (ev):

   -31.5134 -31.4976 -31.1245 -13.4448 -13.1695 -12.7928 -12.7129 -12.6084
   -12.5234 -12.3703 -12.3576 -12.2470 -12.1218 -11.9917 -10.5469 -10.3876
   -10.3163 -10.2835 -10.1627 -10.1201  -0.0184   0.0928   1.5231   1.8145
     2.1398   2.4361   2.5311   2.6593   3.6379   3.9906   4.1367   4.2638
     4.4723   4.7567   4.8345   5.1375   5.4175   5.5759   5.7132   6.0660
     6.3408   6.5104   6.5285   6.6576  13.1255  13.3207  13.7699  13.8847
    14.0542  14.0984  14.2808  14.4181  14.4667

          k =-0.9512 0.5461 0.2460 (  6168 PWs)   bands (ev):

   -31.5233 -31.4880 -31.1246 -13.3938 -13.2834 -12.7143 -12.7039 -12.5369
   -12.4749 -12.4394 -12.3388 -12.2736 -12.1265 -11.9805 -10.4602 -10.4366
   -10.3601 -10.2492 -10.2420 -10.1410  -0.3347  -0.2155   1.7593   1.8987
     2.0204   2.0615   2.5108   2.6882   3.7785   4.1129   4.1342   4.4909
     4.4926   4.7733   4.8882   5.1501   5.4939   5.6924   6.1255   6.4623
     6.4807   6.5290   6.6268   6.8277  12.6455  12.9290  13.4724  13.7275
    14.0294  14.1271  14.2684  14.3083  14.3219

          k =-0.2022 1.0271-0.4935 (  6168 PWs)   bands (ev):

   -31.5232 -31.4880 -31.1247 -13.3770 -13.3409 -12.7286 -12.6638 -12.5607
   -12.4738 -12.4177 -12.3640 -12.2559 -12.0509 -11.9875 -10.4480 -10.4399
   -10.3577 -10.2656 -10.2503 -10.1856  -0.2673  -0.1813   1.6414   1.8002
     2.0738   2.1537   2.4591   2.7176   3.8421   4.0948   4.1927   4.4043
     4.5594   4.8361   4.8798   4.8949   5.5283   5.6105   6.1874   6.4136
     6.4534   6.6162   6.7143   6.8496  12.6305  12.8371  13.6004  13.8666
    13.9471  13.9548  14.1676  14.3078  14.5525

          k =-0.4519 0.8668-0.2470 (  6174 PWs)   bands (ev):

   -31.5133 -31.4976 -31.1246 -13.4256 -13.2615 -12.7827 -12.7233 -12.5282
   -12.5092 -12.3715 -12.3283 -12.2584 -12.1258 -11.9934 -10.4700 -10.4000
   -10.3815 -10.2741 -10.1815 -10.1553   0.0638   0.1540   1.4593   1.6862
     2.1317   2.4612   2.5090   2.7525   3.6973   3.8919   4.1738   4.2541
     4.4469   4.7094   4.9156   4.9802   5.4382   5.5239   5.7682   6.0458
     6.3754   6.5569   6.5686   6.6939  13.0394  13.2595  13.7322  13.9584
    14.0376  14.2103  14.2358  14.2660  14.5344

          k =-0.7021-0.4509-0.0020 (  6162 PWs)   bands (ev):

   -31.5133 -31.4976 -31.1246 -13.3909 -13.3126 -12.7833 -12.6267 -12.5780
   -12.4731 -12.4543 -12.2748 -12.2513 -12.2483 -11.9145 -10.4739 -10.3842
   -10.3623 -10.2648 -10.2156 -10.1614   0.0449   0.1535   1.3319   1.9079
     2.2037   2.2814   2.5953   2.7292   3.7990   3.7990   4.3211   4.3582
     4.5362   4.5632   4.6718   4.7830   5.3749   5.5887   5.8617   6.1470
     6.3188   6.4667   6.7178   6.7210  13.1779  13.3818  13.5721  13.7762
    14.0091  14.0704  14.1874  14.4411  14.5182

          k =-0.9518-0.6112 0.2445 (  6168 PWs)   bands (ev):

   -31.5232 -31.4880 -31.1247 -13.3770 -13.3409 -12.7286 -12.6638 -12.5607
   -12.4738 -12.4177 -12.3640 -12.2559 -12.0509 -11.9875 -10.4480 -10.4399
   -10.3577 -10.2656 -10.2503 -10.1856  -0.2673  -0.1813   1.6414   1.8002
     2.0738   2.1537   2.4591   2.7176   3.8421   4.0948   4.1928   4.4043
     4.5594   4.8361   4.8798   4.8949   5.5283   5.6105   6.1874   6.4136
     6.4534   6.6162   6.7143   6.8496  12.6305  12.8371  13.6004  13.8666
    13.9473  13.9548  14.1676  14.3077  14.5523

          k =-0.2028-0.1302-0.4950 (  6182 PWs)   bands (ev):

   -31.5294 -31.4821 -31.1248 -13.4111 -13.3109 -12.6558 -12.6558 -12.5449
   -12.5063 -12.5063 -12.2686 -12.2686 -12.1236 -11.8669 -10.4844 -10.4844
   -10.3280 -10.2556 -10.2469 -10.2469  -0.5020  -0.4851   1.6669   1.8994
     1.8994   2.3307   2.3307   2.5194   4.0832   4.0832   4.2896   4.4879
     4.4879   4.8954   4.8954   4.9305   5.7870   5.7870   6.5829   6.5829
     6.6005   6.8416   6.9019   6.9019  12.4403  12.4404  13.3550  13.4727
    13.5222  13.5222  13.9620  14.3040  14.5514

     the Fermi energy is     9.0461 ev

!    total energy              =    -846.51981557 Ry

     total all-electron energy =     -6656.434881 Ry
     estimated scf accuracy    <          2.3E-11 Ry
     smearing contrib. (-TS)   =      -0.00000000 Ry
     internal energy E=F+TS    =    -846.51981557 Ry

     The total energy is F=E-TS. E is the sum of the following terms:
     one-electron contribution =    -116.23769787 Ry
     hartree contribution      =     110.11509326 Ry
     xc contribution           =    -106.16133932 Ry
     ewald contribution        =    -394.26922692 Ry
     one-center paw contrib.   =    -339.96664472 Ry

     convergence has been achieved in  17 iterations

     Forces acting on atoms (cartesian axes, Ry/au):

     atom    1 type  1   force =     0.00000000    0.00000000    0.00000000
     atom    2 type  1   force =    -0.00002669   -0.00001714   -0.00006478
     atom    3 type  1   force =     0.00002669    0.00001714    0.00006478
     atom    4 type  2   force =    -0.00000698   -0.00000243   -0.00001905
     atom    5 type  2   force =     0.00000698    0.00000243    0.00001905
     atom    6 type  3   force =    -0.00001028   -0.00000667   -0.00001003
     atom    7 type  3   force =    -0.00000580    0.00000566   -0.00001431
     atom    8 type  3   force =     0.00000100   -0.00000702   -0.00001449
     atom    9 type  3   force =    -0.00000100    0.00000702    0.00001449
     atom   10 type  3   force =     0.00001028    0.00000667    0.00001003
     atom   11 type  3   force =    -0.00002752   -0.00001775   -0.00006731
     atom   12 type  3   force =     0.00002752    0.00001775    0.00006731
     atom   13 type  3   force =     0.00000580   -0.00000566    0.00001431

     Total force =     0.000155     Total SCF correction =     0.000012


     Computing stress (Cartesian axis) and pressure

          total   stress  (Ry/bohr**3)                   (kbar)     P=        0.41
   0.00000310  -0.00000013  -0.00000049            0.46       -0.02       -0.07
  -0.00000013   0.00000321  -0.00000032           -0.02        0.47       -0.05
  -0.00000049  -0.00000032   0.00000212           -0.07       -0.05        0.31


     Writing output data file ./out2/Ca3O8P2.save/

     init_run     :     41.36s CPU     53.30s WALL (       2 calls)
     electrons    :   8981.17s CPU  11312.39s WALL (      14 calls)
     update_pot   :    123.90s CPU    158.79s WALL (      12 calls)
     forces       :    162.48s CPU    205.59s WALL (      14 calls)
     stress       :    275.23s CPU    348.12s WALL (      14 calls)

     Called by init_run:
     wfcinit      :     21.99s CPU     28.96s WALL (       2 calls)
     potinit      :      7.46s CPU      9.25s WALL (       2 calls)
     hinit0       :     10.76s CPU     13.31s WALL (       2 calls)

     Called by electrons:
     c_bands      :   7958.97s CPU  10020.02s WALL (     187 calls)
     sum_band     :    767.11s CPU    965.49s WALL (     187 calls)
     v_of_rho     :     48.12s CPU     63.76s WALL (     194 calls)
     newd         :     79.68s CPU    103.92s WALL (     194 calls)
     PAW_pot      :    135.18s CPU    170.91s WALL (     206 calls)
     mix_rho      :      6.34s CPU      8.46s WALL (     187 calls)

     Called by c_bands:
     init_us_2    :     16.68s CPU     21.26s WALL (    7488 calls)
     cegterg      :   7240.47s CPU   9133.90s WALL (    3391 calls)

     Called by *egterg:
     cdiaghg      :    432.99s CPU    570.40s WALL (   18358 calls)
     h_psi        :   3560.42s CPU   4560.37s WALL (   18761 calls)
     s_psi        :    590.91s CPU    756.75s WALL (   18761 calls)
     g_psi        :      5.82s CPU      8.14s WALL (   15334 calls)

     Called by h_psi:
     h_psi:calbec :    843.01s CPU   1047.35s WALL (   18761 calls)
     vloc_psi     :   2107.55s CPU   2722.47s WALL (   18761 calls)
     add_vuspsi   :    605.51s CPU    785.13s WALL (   18761 calls)

     General routines
     calbec       :   1231.06s CPU   1521.38s WALL (   23603 calls)
     fft          :     56.70s CPU     71.90s WALL (    2863 calls)
     ffts         :      1.47s CPU      1.88s WALL (     381 calls)
     fftw         :   2238.03s CPU   2901.74s WALL ( 1312024 calls)
     interpolate  :      3.83s CPU      4.81s WALL (     194 calls)

     Parallel routines
     fft_scatt_xy :    174.41s CPU    234.75s WALL ( 1315268 calls)
     fft_scatt_yz :   1394.99s CPU   1829.25s WALL ( 1315268 calls)

     PWSCF        :      2h40m CPU      3h22m WALL


   This run was terminated on:  21:46:24   3Jul2026            

=------------------------------------------------------------------------------=
   JOB DONE.
=------------------------------------------------------------------------------=
