
     Program PWSCF v.6.7MaX starts on  3Jul2026 at 22: 4:25 

     This program is part of the open-source Quantum ESPRESSO suite
     for quantum simulation of materials; please cite
         "P. Giannozzi et al., J. Phys.:Condens. Matter 21 395502 (2009);
         "P. Giannozzi et al., J. Phys.:Condens. Matter 29 465901 (2017);
          URL http://www.quantum-espresso.org", 
     in publications or presentations arising from this work. More details at
     http://www.quantum-espresso.org/quote

     Parallel version (MPI), running on     8 processors

     MPI processes distributed on     1 nodes
     K-points division:     npool     =       2
     R & G space division:  proc/nbgrp/npool/nimage =       4
     Waiting for input...
     Reading input from standard input
Warning: card &CELL ignored
Warning: card / ignored

     Current dimensions of program PWSCF are:
     Max number of different atomic species (ntypx) = 10
     Max number of k-points (npk) =  40000
     Max angular momentum in pseudopotentials (lmaxx) =  3
     file Ca.pbe-spn-kjpaw_psl.1.0.0.UPF: wavefunction(s)  3S renormalized
     file P.pbe-n-kjpaw_psl.1.0.0.UPF: wavefunction(s)  3S 3P renormalized
     file O.pbe-n-kjpaw_psl.0.1.UPF: wavefunction(s)  2P renormalized

     Subspace diagonalization in iterative solution of the eigenvalue problem:
     one sub-group per band group will be used
     scalapack distributed-memory algorithm (size of sub-group:  2*  2 procs)


     Parallelization info
     --------------------
     sticks:   dense  smooth     PW     G-vecs:    dense   smooth      PW
     Min         949     474    137                33471    11818    1856
     Max         950     475    138                33472    11819    1857
     Sum        3799    1897    549               133887    47273    7427



     bravais-lattice index     =            0
     lattice parameter (alat)  =      13.0318  a.u.
     unit-cell volume          =     990.2235 (a.u.)^3
     number of atoms/cell      =           13
     number of atomic types    =            3
     number of electrons       =        88.00
     number of Kohn-Sham states=           44
     kinetic-energy cutoff     =      50.0000  Ry
     charge density cutoff     =     400.0000  Ry
     scf convergence threshold =      1.0E-10
     mixing beta               =       0.3000
     number of iterations used =            8  plain     mixing
     Exchange-correlation= SLA  PW   PBX  PBC
                           (   1   4   3   4   0   0   0)

     celldm(1)=  13.031835  celldm(2)=   0.000000  celldm(3)=   0.000000
     celldm(4)=   0.000000  celldm(5)=   0.000000  celldm(6)=   0.000000

     crystal axes: (cart. coord. in units of alat)
               a(1) = (   0.701517   0.000051   0.712653 )  
               a(2) = (   0.291941   0.637884   0.712653 )  
               a(3) = (   0.000079   0.000051   1.000000 )  

     reciprocal axes: (cart. coord. in units 2 pi/alat)
               b(1) = (  1.425610 -0.652372 -0.000079 )  
               b(2) = ( -0.000032  1.567786 -0.000079 )  
               b(3) = ( -1.015942 -0.652372  1.000113 )  


     PseudoPot. # 1 for Ca read from file:
     /data/pseudopotentials/Ca.pbe-spn-kjpaw_psl.1.0.0.UPF
     MD5 check sum: 1e11ab70c77b02a7d7d676f41d47b751
     Pseudo is Projector augmented-wave + core cor, Zval = 10.0
     Generated using &quot;atomic&quot; code by A. Dal Corso  v.6.4.1
     Shape of augmentation charge: PSQ
     Using radial grid of 1169 points,  6 beta functions with: 
                l(1) =   0
                l(2) =   0
                l(3) =   1
                l(4) =   1
                l(5) =   2
                l(6) =   2
     Q(r) pseudized with 0 coefficients 


     PseudoPot. # 2 for P  read from file:
     /data/pseudopotentials/P.pbe-n-kjpaw_psl.1.0.0.UPF
     MD5 check sum: 06b8cad1975795032ee26009bb7624c7
     Pseudo is Projector augmented-wave + core cor, Zval =  5.0
     Generated using &quot;atomic&quot; code by A. Dal Corso  v.6.3
     Shape of augmentation charge: PSQ
     Using radial grid of 1147 points,  6 beta functions with: 
                l(1) =   0
                l(2) =   0
                l(3) =   1
                l(4) =   1
                l(5) =   2
                l(6) =   2
     Q(r) pseudized with 0 coefficients 


     PseudoPot. # 3 for O  read from file:
     /data/pseudopotentials/O.pbe-n-kjpaw_psl.0.1.UPF
     MD5 check sum: 833c495a5d0f9b75bf046115549bffff
     Pseudo is Projector augmented-wave + core cor, Zval =  6.0
     Generated using &quot;atomic&quot; code by A. Dal Corso  v.6.3
     Shape of augmentation charge: BESSEL
     Using radial grid of 1095 points,  4 beta functions with: 
                l(1) =   0
                l(2) =   0
                l(3) =   1
                l(4) =   1
     Q(r) pseudized with 0 coefficients 


     atomic species   valence    mass     pseudopotential
        Ca            10.00    40.07800     Ca( 1.00)
        P              5.00    30.97376     P ( 1.00)
        O              6.00    15.99900     O ( 1.00)

     No symmetry found



   Cartesian axes

     site n.     atom                  positions (alat units)
         1           Ca  tau(   1) = (   0.0000000   0.0000000   0.0000000  )
         2           Ca  tau(   2) = (   0.2018097   0.1295892   0.4926343  )
         3           Ca  tau(   3) = (   0.7917271   0.5083960   1.9326719  )
         4           P   tau(   4) = (   0.4024046   0.2583983   0.9823032  )
         5           P   tau(   5) = (   0.5911322   0.3795869   1.4430030  )
         6           O   tau(   6) = (   0.7224291   0.4638974   1.2833381  )
         7           O   tau(   7) = (   0.5822581   0.1575689   1.4213405  )
         8           O   tau(   8) = (   0.3855538   0.4638974   1.4213405  )
         9           O   tau(   9) = (   0.6079830   0.1740878   1.0039657  )
        10           O   tau(  10) = (   0.2711077   0.1740878   1.1419681  )
        11           O   tau(  11) = (   0.3213490   0.2063496   0.7844397  )
        12           O   tau(  12) = (   0.6721878   0.4316356   1.6408665  )
        13           O   tau(  13) = (   0.4112787   0.4804163   1.0039657  )

     number of k points=    36
                       cart. coord. in units 2pi/alat
        k(    1) = (   0.0000000   0.0000000   0.0000000), wk =   0.0312500
        k(    2) = (  -0.2539856  -0.1630931   0.2500282), wk =   0.0625000
        k(    3) = (   0.5079711   0.3261861  -0.5000564), wk =   0.0312500
        k(    4) = (  -0.0000081   0.3919465  -0.0000198), wk =   0.0625000
        k(    5) = (  -0.2539937   0.2288535   0.2500084), wk =   0.0625000
        k(    6) = (   0.5079630   0.7181327  -0.5000762), wk =   0.0625000
        k(    7) = (   0.2539775   0.5550396  -0.2500480), wk =   0.0625000
        k(    8) = (   0.0000162  -0.7838931   0.0000396), wk =   0.0312500
        k(    9) = (  -0.2539693  -0.9469861   0.2500678), wk =   0.0625000
        k(   10) = (   0.5079874  -0.4577070  -0.5000168), wk =   0.0312500
        k(   11) = (   0.3564026  -0.1630931  -0.0000198), wk =   0.0625000
        k(   12) = (   0.1024170  -0.3261862   0.2500084), wk =   0.0625000
        k(   13) = (   0.8643737   0.1630930  -0.5000763), wk =   0.0625000
        k(   14) = (   0.6103882  -0.0000000  -0.2500480), wk =   0.0625000
        k(   15) = (   0.3563945   0.2288534  -0.0000396), wk =   0.0625000
        k(   16) = (   0.1024089   0.0657604   0.2499886), wk =   0.0625000
        k(   17) = (   0.8643656   0.5550396  -0.5000961), wk =   0.0625000
        k(   18) = (   0.6103801   0.3919465  -0.2500679), wk =   0.0625000
        k(   19) = (   0.3564188  -0.9469862   0.0000198), wk =   0.0625000
        k(   20) = (   0.1024333  -1.1100793   0.2500480), wk =   0.0625000
        k(   21) = (   0.8643900  -0.6208001  -0.5000366), wk =   0.0625000
        k(   22) = (   0.6104044  -0.7838931  -0.2500084), wk =   0.0625000
        k(   23) = (   0.3564107  -0.5550396  -0.0000000), wk =   0.0625000
        k(   24) = (   0.1024252  -0.7181327   0.2500282), wk =   0.0625000
        k(   25) = (   0.8643819  -0.2288535  -0.5000565), wk =   0.0625000
        k(   26) = (   0.6103963  -0.3919466  -0.2500282), wk =   0.0625000
        k(   27) = (  -0.7128052   0.3261862   0.0000397), wk =   0.0312500
        k(   28) = (  -0.9667908   0.1630932   0.2500679), wk =   0.0625000
        k(   29) = (  -0.2048341   0.6523723  -0.5000167), wk =   0.0312500
        k(   30) = (  -0.7128133   0.7181328   0.0000199), wk =   0.0625000
        k(   31) = (  -0.9667989   0.5550397   0.2500481), wk =   0.0625000
        k(   32) = (  -0.2048422   1.0443189  -0.5000365), wk =   0.0625000
        k(   33) = (  -0.4588278   0.8812258  -0.2500083), wk =   0.0625000
        k(   34) = (  -0.7127890  -0.4577069   0.0000793), wk =   0.0312500
        k(   35) = (  -0.9667746  -0.6207999   0.2501075), wk =   0.0625000
        k(   36) = (  -0.2048179  -0.1315207  -0.4999771), wk =   0.0312500

     Dense  grid:   133887 G-vectors     FFT dimensions: (  90,  90,  90)

     Smooth grid:    47273 G-vectors     FFT dimensions: (  60,  60,  60)

     Estimated max dynamical RAM per process >     109.13 MB

     Estimated total dynamical RAM >     873.05 MB

     Check: negative core charge=   -0.000003

     Initial potential from superposition of free atoms

     starting charge   87.98510, renormalised to   88.00000
     Starting wfcs are   64 randomized atomic wfcs
     Checking if some PAW data can be deallocated... 

     total cpu time spent up to now is       22.1 secs

     Self-consistent Calculation

     iteration #  1     ecut=    50.00 Ry     beta= 0.30
     Davidson diagonalization with overlap
     ethr =  1.00E-02,  avg # of iterations =  2.0

     total cpu time spent up to now is       61.5 secs

     total energy              =    -845.85894964 Ry
     estimated scf accuracy    <       3.00355267 Ry

     iteration #  2     ecut=    50.00 Ry     beta= 0.30
     Davidson diagonalization with overlap
     ethr =  3.41E-03,  avg # of iterations =  2.0

     total cpu time spent up to now is       99.8 secs

     total energy              =    -846.31250610 Ry
     estimated scf accuracy    <       0.25473610 Ry

     iteration #  3     ecut=    50.00 Ry     beta= 0.30
     Davidson diagonalization with overlap
     ethr =  2.89E-04,  avg # of iterations =  6.6

     total cpu time spent up to now is      170.1 secs

     total energy              =    -846.47573773 Ry
     estimated scf accuracy    <       0.10360545 Ry

     iteration #  4     ecut=    50.00 Ry     beta= 0.30
     Davidson diagonalization with overlap
     ethr =  1.18E-04,  avg # of iterations =  3.8

     total cpu time spent up to now is      211.9 secs

     total energy              =    -846.50716081 Ry
     estimated scf accuracy    <       0.01946643 Ry

     iteration #  5     ecut=    50.00 Ry     beta= 0.30
     Davidson diagonalization with overlap
     ethr =  2.21E-05,  avg # of iterations =  5.9

     total cpu time spent up to now is      266.1 secs

     total energy              =    -846.50356744 Ry
     estimated scf accuracy    <       0.02783845 Ry

     iteration #  6     ecut=    50.00 Ry     beta= 0.30
     Davidson diagonalization with overlap
     ethr =  2.21E-05,  avg # of iterations =  2.0

     total cpu time spent up to now is      303.4 secs

     total energy              =    -846.50434179 Ry
     estimated scf accuracy    <       0.00356640 Ry

     iteration #  7     ecut=    50.00 Ry     beta= 0.30
     Davidson diagonalization with overlap
     ethr =  4.05E-06,  avg # of iterations =  6.8

     total cpu time spent up to now is      370.0 secs

     total energy              =    -846.50715566 Ry
     estimated scf accuracy    <       0.00461132 Ry

     iteration #  8     ecut=    50.00 Ry     beta= 0.30
     Davidson diagonalization with overlap
     ethr =  4.05E-06,  avg # of iterations =  2.0

     total cpu time spent up to now is      408.3 secs

     total energy              =    -846.50729616 Ry
     estimated scf accuracy    <       0.00055305 Ry

     iteration #  9     ecut=    50.00 Ry     beta= 0.30
     Davidson diagonalization with overlap
     ethr =  6.28E-07,  avg # of iterations =  6.1

     total cpu time spent up to now is      474.7 secs

     total energy              =    -846.50770407 Ry
     estimated scf accuracy    <       0.00045838 Ry

     iteration # 10     ecut=    50.00 Ry     beta= 0.30
     Davidson diagonalization with overlap
     ethr =  5.21E-07,  avg # of iterations =  2.0

     total cpu time spent up to now is      510.8 secs

     total energy              =    -846.50771345 Ry
     estimated scf accuracy    <       0.00008323 Ry

     iteration # 11     ecut=    50.00 Ry     beta= 0.30
     Davidson diagonalization with overlap
     ethr =  9.46E-08,  avg # of iterations =  4.8

     total cpu time spent up to now is      555.6 secs

     total energy              =    -846.50774621 Ry
     estimated scf accuracy    <       0.00000115 Ry

     iteration # 12     ecut=    50.00 Ry     beta= 0.30
     Davidson diagonalization with overlap
     ethr =  1.31E-09,  avg # of iterations = 10.1

     total cpu time spent up to now is      656.0 secs

     total energy              =    -846.50775144 Ry
     estimated scf accuracy    <       0.00000353 Ry

     iteration # 13     ecut=    50.00 Ry     beta= 0.30
     Davidson diagonalization with overlap
     ethr =  1.31E-09,  avg # of iterations =  3.1

     total cpu time spent up to now is      699.5 secs

     total energy              =    -846.50775187 Ry
     estimated scf accuracy    <       0.00000018 Ry

     iteration # 14     ecut=    50.00 Ry     beta= 0.30
     Davidson diagonalization with overlap
     ethr =  2.05E-10,  avg # of iterations =  8.0

     total cpu time spent up to now is      783.4 secs

     total energy              =    -846.50775191 Ry
     estimated scf accuracy    <       0.00000057 Ry

     iteration # 15     ecut=    50.00 Ry     beta= 0.30
     Davidson diagonalization with overlap
     ethr =  2.05E-10,  avg # of iterations =  5.1

     total cpu time spent up to now is      840.1 secs

     total energy              =    -846.50775208 Ry
     estimated scf accuracy    <       0.00000003 Ry

     iteration # 16     ecut=    50.00 Ry     beta= 0.30
     Davidson diagonalization with overlap
     ethr =  3.20E-11,  avg # of iterations =  2.2

     total cpu time spent up to now is      875.1 secs

     total energy              =    -846.50775208 Ry
     estimated scf accuracy    <          1.0E-08 Ry

     iteration # 17     ecut=    50.00 Ry     beta= 0.30
     Davidson diagonalization with overlap
     ethr =  1.13E-11,  avg # of iterations =  5.6

     total cpu time spent up to now is      931.5 secs

     total energy              =    -846.50775208 Ry
     estimated scf accuracy    <          9.6E-09 Ry

     iteration # 18     ecut=    50.00 Ry     beta= 0.30
     Davidson diagonalization with overlap
     ethr =  1.09E-11,  avg # of iterations =  3.6

     total cpu time spent up to now is      977.7 secs

     total energy              =    -846.50775208 Ry
     estimated scf accuracy    <          1.0E-09 Ry

     iteration # 19     ecut=    50.00 Ry     beta= 0.30
     Davidson diagonalization with overlap
     ethr =  1.15E-12,  avg # of iterations =  4.9

     total cpu time spent up to now is     1025.4 secs

     total energy              =    -846.50775208 Ry
     estimated scf accuracy    <          8.0E-10 Ry

     iteration # 20     ecut=    50.00 Ry     beta= 0.30
     Davidson diagonalization with overlap
     ethr =  9.10E-13,  avg # of iterations =  2.6

     total cpu time spent up to now is     1064.3 secs

     End of self-consistent calculation

          k = 0.0000 0.0000 0.0000 (  5949 PWs)   bands (ev):

   -30.8610 -30.8010 -30.4758 -13.0338 -12.9138 -12.0400 -12.0144 -12.0144
   -11.9593 -11.8647 -11.8647 -11.6678 -11.6678 -11.2764 -10.0238 -10.0238
    -9.9559  -9.9559  -9.8966  -9.5659  -0.4072  -0.0570   2.2522   2.2522
     2.5201   2.6491   2.8188   2.8188   4.2754   4.2754   4.4091   5.1016
     5.1016   5.4427   5.4427   6.3184   6.3321   6.3321   6.8941   6.8941
     6.9436   6.9436   7.0763   7.3740

          k =-0.2540-0.1631 0.2500 (  5904 PWs)   bands (ev):

   -30.8530 -30.8084 -30.4757 -13.1338 -12.8347 -12.1070 -12.0942 -12.0858
   -11.9474 -11.8041 -11.7031 -11.6792 -11.5588 -11.4189 -10.1016 -10.0064
    -9.9383  -9.9105  -9.8321  -9.6058  -0.0224   0.2078   2.2222   2.3920
     2.4200   2.6462   2.8684   2.9824   4.0045   4.3476   4.5391   4.9951
     5.0840   5.2709   5.3820   5.6394   6.1405   6.2358   6.5168   6.7921
     6.8146   6.9092   7.0436   7.2047

          k = 0.5080 0.3262-0.5001 (  5912 PWs)   bands (ev):

   -30.8404 -30.8205 -30.4757 -13.2243 -12.6803 -12.3045 -12.1656 -12.1266
   -11.8040 -11.7512 -11.7235 -11.6626 -11.6048 -11.3046 -10.2968  -9.9904
    -9.9094  -9.8656  -9.6931  -9.6758   0.4090   0.5720   2.1873   2.2324
     2.6312   2.7212   2.8039   3.1539   4.0067   4.4476   4.5107   4.5726
     4.7352   4.8766   5.4036   5.6252   5.6676   6.0786   6.2698   6.7719
     6.8242   6.8818   6.8863   7.1993

          k =-0.0000 0.3919-0.0000 (  5904 PWs)   bands (ev):

   -30.8530 -30.8084 -30.4757 -13.1338 -12.8347 -12.1070 -12.0942 -12.0858
   -11.9474 -11.8041 -11.7031 -11.6792 -11.5588 -11.4189 -10.1016 -10.0064
    -9.9383  -9.9105  -9.8321  -9.6058  -0.0224   0.2078   2.2222   2.3920
     2.4200   2.6462   2.8684   2.9824   4.0045   4.3476   4.5391   4.9951
     5.0840   5.2709   5.3820   5.6394   6.1405   6.2358   6.5168   6.7921
     6.8146   6.9092   7.0436   7.2047

          k =-0.2540 0.2289 0.2500 (  5920 PWs)   bands (ev):

   -30.8530 -30.8084 -30.4758 -13.1266 -12.8923 -12.1308 -12.1298 -11.9821
   -11.9177 -11.8033 -11.7522 -11.6464 -11.5055 -11.4268 -10.1063 -10.0379
    -9.9069  -9.8888  -9.8647  -9.6582   0.0361   0.2457   2.1055   2.3346
     2.4194   2.7410   2.9109   2.9389   4.0745   4.3217   4.5520   5.0294
     5.0902   5.2304   5.2952   5.6011   6.0486   6.2016   6.6199   6.7110
     6.8142   7.0425   7.0663   7.2338

          k = 0.5080 0.7181-0.5001 (  5924 PWs)   bands (ev):

   -30.8404 -30.8205 -30.4757 -13.1758 -12.8660 -12.2344 -12.1510 -11.9981
   -11.8942 -11.7298 -11.7125 -11.6295 -11.5443 -11.4018 -10.1725  -9.9975
    -9.9313  -9.8902  -9.7387  -9.7309   0.5274   0.6439   1.8869   2.2004
     2.5285   2.8433   2.9399   3.0905   3.9837   4.3550   4.5198   4.6440
     4.8634   5.1446   5.2420   5.5578   5.8506   6.0136   6.1567   6.5322
     6.8160   6.9876   6.9964   7.1447

          k = 0.2540 0.5550-0.2500 (  5915 PWs)   bands (ev):

   -30.8405 -30.8205 -30.4757 -13.1950 -12.7484 -12.3081 -12.1724 -12.0162
   -11.9438 -11.7292 -11.7050 -11.6289 -11.5135 -11.4122 -10.2106  -9.9878
    -9.9451  -9.8342  -9.7994  -9.6344   0.4435   0.5757   2.0393   2.1724
     2.6322   2.8056   2.9181   3.0929   3.8723   4.3847   4.4454   4.7358
     4.7972   5.2891   5.3810   5.5058   5.8604   6.0456   6.1192   6.5151
     6.8248   6.8908   6.9982   7.0775

          k = 0.0000-0.7839 0.0000 (  5912 PWs)   bands (ev):

   -30.8404 -30.8205 -30.4757 -13.2243 -12.6802 -12.3045 -12.1656 -12.1266
   -11.8040 -11.7512 -11.7235 -11.6626 -11.6048 -11.3046 -10.2968  -9.9904
    -9.9094  -9.8656  -9.6931  -9.6758   0.4090   0.5720   2.1873   2.2324
     2.6312   2.7212   2.8039   3.1539   4.0067   4.4476   4.5107   4.5726
     4.7352   4.8766   5.4036   5.6252   5.6676   6.0786   6.2698   6.7719
     6.8242   6.8818   6.8863   7.1993

          k =-0.2540-0.9470 0.2501 (  5924 PWs)   bands (ev):

   -30.8404 -30.8205 -30.4757 -13.1758 -12.8660 -12.2344 -12.1510 -11.9981
   -11.8942 -11.7298 -11.7125 -11.6295 -11.5443 -11.4018 -10.1725  -9.9975
    -9.9313  -9.8902  -9.7387  -9.7309   0.5274   0.6439   1.8869   2.2004
     2.5285   2.8433   2.9399   3.0905   3.9837   4.3551   4.5198   4.6440
     4.8634   5.1446   5.2420   5.5578   5.8506   6.0136   6.1567   6.5322
     6.8160   6.9876   6.9964   7.1447

          k = 0.5080-0.4577-0.5000 (  5910 PWs)   bands (ev):

   -30.8403 -30.8205 -30.4758 -13.1090 -13.0129 -12.2076 -12.0371 -12.0177
   -11.8268 -11.7798 -11.7222 -11.6322 -11.6267 -11.3275 -10.0901 -10.0307
    -9.9308  -9.8430  -9.8320  -9.7864   0.6022   0.7109   1.6695   2.3157
     2.5957   2.6634   3.0139   3.1791   4.1514   4.1701   4.6875   4.7197
     4.9455   4.9814   5.0479   5.1806   5.7975   6.0267   6.3116   6.6224
     6.7891   6.9387   7.2023   7.2110

          k = 0.3564-0.1631-0.0000 (  5904 PWs)   bands (ev):

   -30.8530 -30.8084 -30.4757 -13.1338 -12.8347 -12.1070 -12.0942 -12.0858
   -11.9474 -11.8041 -11.7031 -11.6792 -11.5588 -11.4189 -10.1016 -10.0064
    -9.9383  -9.9105  -9.8321  -9.6058  -0.0224   0.2078   2.2222   2.3920
     2.4200   2.6462   2.8684   2.9824   4.0045   4.3476   4.5391   4.9951
     5.0840   5.2709   5.3820   5.6394   6.1405   6.2358   6.5168   6.7921
     6.8146   6.9092   7.0436   7.2047

          k = 0.1024-0.3262 0.2500 (  5920 PWs)   bands (ev):

   -30.8530 -30.8084 -30.4758 -13.1266 -12.8923 -12.1308 -12.1298 -11.9821
   -11.9177 -11.8033 -11.7522 -11.6464 -11.5055 -11.4268 -10.1063 -10.0379
    -9.9069  -9.8888  -9.8647  -9.6582   0.0361   0.2457   2.1055   2.3346
     2.4194   2.7410   2.9109   2.9389   4.0745   4.3217   4.5520   5.0294
     5.0902   5.2304   5.2952   5.6011   6.0486   6.2016   6.6199   6.7110
     6.8142   7.0425   7.0663   7.2338

          k = 0.8644 0.1631-0.5001 (  5924 PWs)   bands (ev):

   -30.8404 -30.8205 -30.4757 -13.1758 -12.8660 -12.2344 -12.1510 -11.9981
   -11.8942 -11.7298 -11.7125 -11.6295 -11.5443 -11.4018 -10.1725  -9.9975
    -9.9313  -9.8902  -9.7387  -9.7309   0.5274   0.6439   1.8869   2.2004
     2.5285   2.8433   2.9399   3.0905   3.9837   4.3550   4.5198   4.6440
     4.8634   5.1446   5.2420   5.5578   5.8506   6.0136   6.1567   6.5322
     6.8160   6.9876   6.9964   7.1447

          k = 0.6104-0.0000-0.2500 (  5915 PWs)   bands (ev):

   -30.8405 -30.8205 -30.4757 -13.1950 -12.7484 -12.3081 -12.1724 -12.0162
   -11.9438 -11.7292 -11.7050 -11.6289 -11.5135 -11.4122 -10.2106  -9.9878
    -9.9451  -9.8342  -9.7994  -9.6344   0.4435   0.5757   2.0393   2.1724
     2.6322   2.8056   2.9181   3.0929   3.8723   4.3847   4.4454   4.7358
     4.7972   5.2891   5.3810   5.5058   5.8604   6.0456   6.1192   6.5151
     6.8248   6.8908   6.9982   7.0775

          k = 0.3564 0.2289-0.0000 (  5920 PWs)   bands (ev):

   -30.8530 -30.8084 -30.4758 -13.1266 -12.8923 -12.1308 -12.1298 -11.9821
   -11.9177 -11.8033 -11.7522 -11.6464 -11.5055 -11.4268 -10.1063 -10.0379
    -9.9069  -9.8889  -9.8647  -9.6582   0.0361   0.2457   2.1055   2.3346
     2.4194   2.7410   2.9109   2.9389   4.0745   4.3217   4.5520   5.0294
     5.0902   5.2304   5.2952   5.6011   6.0486   6.2016   6.6199   6.7110
     6.8142   7.0425   7.0663   7.2338

          k = 0.1024 0.0658 0.2500 (  5894 PWs)   bands (ev):

   -30.8607 -30.8011 -30.4759 -13.0877 -12.9846 -12.0210 -12.0210 -12.0084
   -11.8584 -11.8584 -11.7161 -11.6651 -11.6651 -11.2797 -10.0887 -10.0887
    -9.9623  -9.8909  -9.8909  -9.6936  -0.2445   0.0067   2.2280   2.2498
     2.2498   2.7770   2.7770   2.8970   4.3298   4.3299   4.4364   5.0410
     5.0410   5.3363   5.3363   5.9207   6.2913   6.2913   6.9557   6.9557
     7.0857   7.2123   7.2123   7.3637

          k = 0.8644 0.5550-0.5001 (  5902 PWs)   bands (ev):

   -30.8528 -30.8085 -30.4759 -13.1340 -12.9847 -12.1095 -12.1028 -11.9003
   -11.8425 -11.8084 -11.7125 -11.6698 -11.5655 -11.3918 -10.0738 -10.0628
    -9.9812  -9.8656  -9.8546  -9.7444   0.1787   0.3052   2.1298   2.2937
     2.3936   2.4355   2.9146   3.1321   4.1261   4.4858   4.5046   4.8694
     4.8839   5.1857   5.3139   5.5838   5.9296   6.1516   6.5826   6.9420
     6.9541   7.0212   7.1123   7.3274

          k = 0.6104 0.3919-0.2501 (  5921 PWs)   bands (ev):

   -30.8404 -30.8205 -30.4757 -13.1909 -12.8429 -12.1879 -12.1837 -12.0295
   -11.8313 -11.7899 -11.6858 -11.6455 -11.6214 -11.3175 -10.2223 -10.0118
    -9.8783  -9.8529  -9.7986  -9.7076   0.5041   0.6306   1.8839   2.2954
     2.6211   2.6448   3.0850   3.1177   4.0299   4.1855   4.6194   4.6200
     4.9060   4.9302   5.1962   5.4950   5.7636   6.0383   6.2756   6.6774
     6.7766   6.9343   7.0445   7.2246

          k = 0.3564-0.9470 0.0000 (  5924 PWs)   bands (ev):

   -30.8404 -30.8205 -30.4757 -13.1758 -12.8660 -12.2344 -12.1510 -11.9981
   -11.8942 -11.7298 -11.7125 -11.6295 -11.5443 -11.4018 -10.1725  -9.9975
    -9.9313  -9.8902  -9.7387  -9.7309   0.5274   0.6439   1.8869   2.2004
     2.5285   2.8433   2.9399   3.0905   3.9837   4.3551   4.5198   4.6440
     4.8634   5.1446   5.2420   5.5578   5.8506   6.0136   6.1567   6.5322
     6.8160   6.9876   6.9964   7.1447

          k = 0.1024-1.1101 0.2500 (  5902 PWs)   bands (ev):

   -30.8528 -30.8085 -30.4759 -13.1340 -12.9847 -12.1095 -12.1028 -11.9003
   -11.8425 -11.8084 -11.7125 -11.6698 -11.5655 -11.3919 -10.0738 -10.0628
    -9.9812  -9.8656  -9.8546  -9.7444   0.1787   0.3052   2.1298   2.2937
     2.3936   2.4355   2.9146   3.1321   4.1261   4.4858   4.5046   4.8694
     4.8839   5.1857   5.3139   5.5838   5.9296   6.1516   6.5826   6.9420
     6.9541   7.0211   7.1123   7.3274

          k = 0.8644-0.6208-0.5000 (  5905 PWs)   bands (ev):

   -30.8528 -30.8085 -30.4759 -13.0957 -13.0606 -12.1329 -12.0673 -11.9413
   -11.8066 -11.7904 -11.7338 -11.6381 -11.4767 -11.4199 -10.0827 -10.0597
    -9.9659  -9.8981  -9.8445  -9.8042   0.2548   0.3416   2.0030   2.1828
     2.4361   2.5393   2.8719   3.1696   4.2109   4.4392   4.5535   4.7910
     4.9540   5.2521   5.3140   5.3145   5.9677   6.0669   6.6546   6.8833
     6.9402   7.0952   7.2048   7.3493

          k = 0.6104-0.7839-0.2500 (  5912 PWs)   bands (ev):

   -30.8403 -30.8205 -30.4758 -13.1460 -12.9637 -12.2137 -12.1576 -11.8875
   -11.8708 -11.7315 -11.7158 -11.6425 -11.5640 -11.4101 -10.0887 -10.0123
    -9.9763  -9.8706  -9.8103  -9.7513   0.6248   0.7158   1.8129   2.0528
     2.5264   2.8591   2.9176   3.2019   4.0441   4.2601   4.5419   4.6328
     4.8220   5.1031   5.3406   5.4023   5.8753   5.9534   6.2138   6.5093
     6.8495   7.0240   7.0482   7.1839

          k = 0.3564-0.5550-0.0000 (  5915 PWs)   bands (ev):

   -30.8405 -30.8205 -30.4757 -13.1950 -12.7484 -12.3081 -12.1724 -12.0162
   -11.9438 -11.7292 -11.7050 -11.6289 -11.5135 -11.4122 -10.2106  -9.9878
    -9.9451  -9.8342  -9.7994  -9.6344   0.4435   0.5757   2.0393   2.1723
     2.6322   2.8056   2.9181   3.0929   3.8723   4.3847   4.4454   4.7358
     4.7972   5.2891   5.3810   5.5058   5.8604   6.0456   6.1192   6.5151
     6.8248   6.8908   6.9982   7.0775

          k = 0.1024-0.7181 0.2500 (  5921 PWs)   bands (ev):

   -30.8404 -30.8205 -30.4757 -13.1909 -12.8429 -12.1879 -12.1837 -12.0295
   -11.8313 -11.7899 -11.6858 -11.6455 -11.6214 -11.3175 -10.2223 -10.0118
    -9.8783  -9.8529  -9.7986  -9.7076   0.5041   0.6306   1.8839   2.2954
     2.6211   2.6448   3.0850   3.1177   4.0299   4.1855   4.6194   4.6200
     4.9060   4.9302   5.1962   5.4950   5.7636   6.0383   6.2756   6.6774
     6.7766   6.9343   7.0445   7.2246

          k = 0.8644-0.2289-0.5001 (  5912 PWs)   bands (ev):

   -30.8403 -30.8205 -30.4758 -13.1460 -12.9637 -12.2137 -12.1576 -11.8875
   -11.8708 -11.7315 -11.7158 -11.6425 -11.5640 -11.4101 -10.0887 -10.0123
    -9.9763  -9.8706  -9.8103  -9.7513   0.6248   0.7158   1.8129   2.0528
     2.5264   2.8591   2.9176   3.2019   4.0441   4.2601   4.5419   4.6328
     4.8220   5.1031   5.3406   5.4023   5.8753   5.9534   6.2138   6.5093
     6.8495   7.0240   7.0482   7.1838

          k = 0.6104-0.3919-0.2500 (  5921 PWs)   bands (ev):

   -30.8404 -30.8205 -30.4757 -13.1909 -12.8429 -12.1879 -12.1837 -12.0295
   -11.8313 -11.7899 -11.6858 -11.6455 -11.6214 -11.3175 -10.2223 -10.0118
    -9.8783  -9.8529  -9.7986  -9.7076   0.5041   0.6306   1.8839   2.2954
     2.6211   2.6448   3.0850   3.1177   4.0299   4.1855   4.6194   4.6200
     4.9060   4.9302   5.1962   5.4950   5.7636   6.0383   6.2756   6.6774
     6.7766   6.9343   7.0445   7.2246

          k =-0.7128 0.3262 0.0000 (  5912 PWs)   bands (ev):

   -30.8404 -30.8205 -30.4757 -13.2243 -12.6802 -12.3045 -12.1656 -12.1266
   -11.8040 -11.7512 -11.7235 -11.6626 -11.6048 -11.3046 -10.2968  -9.9904
    -9.9094  -9.8655  -9.6931  -9.6758   0.4090   0.5720   2.1873   2.2324
     2.6312   2.7212   2.8039   3.1539   4.0067   4.4476   4.5107   4.5726
     4.7352   4.8766   5.4036   5.6252   5.6676   6.0786   6.2698   6.7719
     6.8242   6.8818   6.8863   7.1993

          k =-0.9668 0.1631 0.2501 (  5924 PWs)   bands (ev):

   -30.8404 -30.8205 -30.4757 -13.1758 -12.8660 -12.2344 -12.1510 -11.9981
   -11.8942 -11.7298 -11.7125 -11.6295 -11.5443 -11.4018 -10.1725  -9.9975
    -9.9313  -9.8902  -9.7387  -9.7309   0.5274   0.6439   1.8869   2.2004
     2.5285   2.8433   2.9399   3.0905   3.9837   4.3550   4.5198   4.6440
     4.8634   5.1446   5.2420   5.5578   5.8506   6.0136   6.1567   6.5322
     6.8160   6.9876   6.9964   7.1447

          k =-0.2048 0.6524-0.5000 (  5910 PWs)   bands (ev):

   -30.8403 -30.8205 -30.4758 -13.1090 -13.0129 -12.2076 -12.0371 -12.0177
   -11.8268 -11.7798 -11.7222 -11.6322 -11.6267 -11.3275 -10.0901 -10.0307
    -9.9308  -9.8430  -9.8320  -9.7864   0.6022   0.7109   1.6695   2.3157
     2.5957   2.6634   3.0139   3.1791   4.1514   4.1701   4.6875   4.7197
     4.9455   4.9814   5.0479   5.1806   5.7975   6.0267   6.3116   6.6224
     6.7891   6.9387   7.2023   7.2110

          k =-0.7128 0.7181 0.0000 (  5924 PWs)   bands (ev):

   -30.8404 -30.8205 -30.4757 -13.1758 -12.8660 -12.2344 -12.1510 -11.9981
   -11.8942 -11.7298 -11.7125 -11.6295 -11.5443 -11.4018 -10.1725  -9.9975
    -9.9313  -9.8902  -9.7387  -9.7309   0.5274   0.6439   1.8869   2.2004
     2.5285   2.8433   2.9399   3.0905   3.9837   4.3551   4.5198   4.6440
     4.8634   5.1446   5.2420   5.5578   5.8506   6.0136   6.1567   6.5322
     6.8160   6.9876   6.9964   7.1447

          k =-0.9668 0.5550 0.2500 (  5902 PWs)   bands (ev):

   -30.8528 -30.8085 -30.4759 -13.1340 -12.9847 -12.1095 -12.1028 -11.9003
   -11.8425 -11.8084 -11.7125 -11.6698 -11.5655 -11.3919 -10.0738 -10.0628
    -9.9812  -9.8656  -9.8546  -9.7443   0.1787   0.3052   2.1298   2.2937
     2.3936   2.4355   2.9146   3.1321   4.1261   4.4858   4.5046   4.8694
     4.8839   5.1857   5.3139   5.5838   5.9296   6.1516   6.5826   6.9420
     6.9541   7.0211   7.1123   7.3274

          k =-0.2048 1.0443-0.5000 (  5905 PWs)   bands (ev):

   -30.8528 -30.8085 -30.4759 -13.0957 -13.0606 -12.1329 -12.0673 -11.9413
   -11.8066 -11.7904 -11.7338 -11.6381 -11.4767 -11.4199 -10.0827 -10.0597
    -9.9659  -9.8981  -9.8446  -9.8042   0.2548   0.3416   2.0030   2.1828
     2.4361   2.5393   2.8719   3.1696   4.2109   4.4392   4.5534   4.7910
     4.9540   5.2521   5.3140   5.3145   5.9677   6.0669   6.6546   6.8833
     6.9402   7.0952   7.2048   7.3493

          k =-0.4588 0.8812-0.2500 (  5912 PWs)   bands (ev):

   -30.8403 -30.8205 -30.4758 -13.1460 -12.9637 -12.2137 -12.1576 -11.8875
   -11.8708 -11.7315 -11.7158 -11.6425 -11.5640 -11.4101 -10.0887 -10.0123
    -9.9763  -9.8706  -9.8103  -9.7513   0.6248   0.7158   1.8129   2.0528
     2.5264   2.8591   2.9176   3.2019   4.0441   4.2601   4.5419   4.6328
     4.8220   5.1031   5.3406   5.4023   5.8753   5.9534   6.2138   6.5093
     6.8495   7.0240   7.0482   7.1839

          k =-0.7128-0.4577 0.0001 (  5910 PWs)   bands (ev):

   -30.8403 -30.8205 -30.4758 -13.1090 -13.0129 -12.2076 -12.0371 -12.0177
   -11.8268 -11.7798 -11.7222 -11.6322 -11.6267 -11.3275 -10.0901 -10.0307
    -9.9308  -9.8430  -9.8320  -9.7864   0.6022   0.7109   1.6695   2.3157
     2.5957   2.6634   3.0139   3.1791   4.1514   4.1701   4.6875   4.7197
     4.9455   4.9814   5.0479   5.1806   5.7975   6.0267   6.3116   6.6224
     6.7891   6.9387   7.2023   7.2110

          k =-0.9668-0.6208 0.2501 (  5905 PWs)   bands (ev):

   -30.8528 -30.8085 -30.4759 -13.0957 -13.0606 -12.1329 -12.0673 -11.9413
   -11.8066 -11.7904 -11.7338 -11.6381 -11.4767 -11.4199 -10.0827 -10.0596
    -9.9659  -9.8981  -9.8446  -9.8042   0.2548   0.3416   2.0030   2.1828
     2.4361   2.5393   2.8719   3.1696   4.2109   4.4392   4.5535   4.7910
     4.9540   5.2521   5.3140   5.3145   5.9677   6.0669   6.6546   6.8833
     6.9402   7.0952   7.2048   7.3493

          k =-0.2048-0.1315-0.5000 (  5858 PWs)   bands (ev):

   -30.8605 -30.8011 -30.4761 -13.1287 -13.0518 -12.0269 -12.0269 -11.9159
   -11.8531 -11.8531 -11.6621 -11.6621 -11.5354 -11.2819 -10.1256 -10.1256
    -9.9858  -9.8793  -9.8539  -9.8539   0.0042   0.0081   2.0297   2.2475
     2.2475   2.7366   2.7366   2.9845   4.4191   4.4191   4.7061   4.8758
     4.8758   5.3238   5.3238   5.3351   6.2619   6.2619   7.0594   7.0594
     7.0959   7.3527   7.4071   7.4071

     highest occupied level (ev):     7.4071

!    total energy              =    -846.50775208 Ry

     total all-electron energy =     -6656.422817 Ry
     estimated scf accuracy    <          2.1E-11 Ry

     The total energy is the sum of the following terms:
     one-electron contribution =    -107.91522462 Ry
     hartree contribution      =     107.69268426 Ry
     xc contribution           =    -106.51160379 Ry
     ewald contribution        =    -399.80316628 Ry
     one-center paw contrib.   =    -339.97044166 Ry

     convergence has been achieved in  20 iterations

     Forces acting on atoms (cartesian axes, Ry/au):

     atom    1 type  1   force =    -0.00000004   -0.00000010    0.00000007
     atom    2 type  1   force =     0.00070823    0.00045473    0.00172889
     atom    3 type  1   force =    -0.00070854   -0.00045480   -0.00172912
     atom    4 type  2   force =     0.00085260    0.00054724    0.00207596
     atom    5 type  2   force =    -0.00085132   -0.00054783   -0.00207576
     atom    6 type  3   force =     0.02167749    0.01391979   -0.02610737
     atom    7 type  3   force =    -0.00139103   -0.03649127   -0.00339571
     atom    8 type  3   force =    -0.03376227    0.01391943   -0.00339574
     atom    9 type  3   force =     0.03376152   -0.01391884    0.00339575
     atom   10 type  3   force =    -0.02167735   -0.01391983    0.02610732
     atom   11 type  3   force =    -0.01463823   -0.00939971   -0.03573422
     atom   12 type  3   force =     0.01463823    0.00939967    0.03573415
     atom   13 type  3   force =     0.00139072    0.03649153    0.00339577

     Total force =     0.106057     Total SCF correction =     0.000013

     Writing output data file ./out2/Ca3O8P2.save/

     init_run     :     15.92s CPU     20.54s WALL (       1 calls)
     electrons    :    838.89s CPU   1042.32s WALL (       1 calls)
     forces       :     10.13s CPU     12.36s WALL (       1 calls)

     Called by init_run:
     wfcinit      :      7.58s CPU      9.81s WALL (       1 calls)
     potinit      :      3.14s CPU      3.53s WALL (       1 calls)
     hinit0       :      4.62s CPU      6.38s WALL (       1 calls)

     Called by electrons:
     c_bands      :    743.67s CPU    922.28s WALL (      20 calls)
     sum_band     :     66.25s CPU     83.52s WALL (      20 calls)
     v_of_rho     :      4.86s CPU      6.40s WALL (      21 calls)
     newd         :      8.67s CPU     11.21s WALL (      21 calls)
     PAW_pot      :     14.91s CPU     18.38s WALL (      21 calls)
     mix_rho      :      0.68s CPU      0.85s WALL (      20 calls)

     Called by c_bands:
     init_us_2    :      1.61s CPU      2.03s WALL (     756 calls)
     cegterg      :    672.40s CPU    836.51s WALL (     360 calls)

     Called by *egterg:
     cdiaghg      :     33.84s CPU     44.61s WALL (    1963 calls)
     h_psi        :    342.19s CPU    431.20s WALL (    1981 calls)
     s_psi        :     56.63s CPU     70.71s WALL (    1981 calls)
     g_psi        :      0.64s CPU      0.86s WALL (    1603 calls)

     Called by h_psi:
     h_psi:calbec :     78.86s CPU     96.29s WALL (    1981 calls)
     vloc_psi     :    205.76s CPU    261.57s WALL (    1981 calls)
     add_vuspsi   :     57.21s CPU     72.89s WALL (    1981 calls)

     General routines
     calbec       :    103.24s CPU    125.70s WALL (    2413 calls)
     fft          :      5.16s CPU      6.37s WALL (     282 calls)
     ffts         :      0.13s CPU      0.17s WALL (      41 calls)
     fftw         :    214.07s CPU    272.91s WALL (  130928 calls)
     interpolate  :      0.37s CPU      0.44s WALL (      21 calls)

     Parallel routines
     fft_scatt_xy :     16.30s CPU     21.66s WALL (  131251 calls)
     fft_scatt_yz :    130.05s CPU    166.95s WALL (  131251 calls)

     PWSCF        :  14m26.11s CPU  17m57.65s WALL


   This run was terminated on:  22:22:23   3Jul2026            

=------------------------------------------------------------------------------=
   JOB DONE.
=------------------------------------------------------------------------------=
