
     Program PWSCF v.6.7MaX starts on  2Jul2026 at  2:46:32 

     This program is part of the open-source Quantum ESPRESSO suite
     for quantum simulation of materials; please cite
         "P. Giannozzi et al., J. Phys.:Condens. Matter 21 395502 (2009);
         "P. Giannozzi et al., J. Phys.:Condens. Matter 29 465901 (2017);
          URL http://www.quantum-espresso.org", 
     in publications or presentations arising from this work. More details at
     http://www.quantum-espresso.org/quote

     Parallel version (MPI), running on     8 processors

     MPI processes distributed on     1 nodes
     K-points division:     npool     =       2
     R & G space division:  proc/nbgrp/npool/nimage =       4
     Waiting for input...
     Reading input from standard input

     Current dimensions of program PWSCF are:
     Max number of different atomic species (ntypx) = 10
     Max number of k-points (npk) =  40000
     Max angular momentum in pseudopotentials (lmaxx) =  3
     file O.pbe-n-kjpaw_psl.0.1.UPF: wavefunction(s)  2P renormalized

     Subspace diagonalization in iterative solution of the eigenvalue problem:
     one sub-group per band group will be used
     scalapack distributed-memory algorithm (size of sub-group:  2*  2 procs)


     Parallelization info
     --------------------
     sticks:   dense  smooth     PW     G-vecs:    dense   smooth      PW
     Min         780     390    109                63798    22568    3429
     Max         781     391    110                63799    22573    3434
     Sum        3121    1561    437               255193    90279   13721



     bravais-lattice index     =            0
     lattice parameter (alat)  =       9.1709  a.u.
     unit-cell volume          =    1889.5770 (a.u.)^3
     number of atoms/cell      =           24
     number of atomic types    =            3
     number of electrons       =       192.00
     number of Kohn-Sham states=          115
     kinetic-energy cutoff     =      50.0000  Ry
     charge density cutoff     =     400.0000  Ry
     scf convergence threshold =      1.0E-08
     mixing beta               =       0.3000
     number of iterations used =            8  plain     mixing
     energy convergence thresh.=      1.0E-05
     force convergence thresh. =      1.0E-04
     press convergence thresh. =      5.0E-01
     Exchange-correlation= SLA  PW   PBX  PBC
                           (   1   4   3   4   0   0   0)
     nstep                     =           50


     celldm(1)=   9.170877  celldm(2)=   0.000000  celldm(3)=   0.000000
     celldm(4)=   0.000000  celldm(5)=   0.000000  celldm(6)=   0.000000

     crystal axes: (cart. coord. in units of alat)
               a(1) = (   1.000000   0.000000   0.000000 )  
               a(2) = (  -0.001911   1.167197   0.000000 )  
               a(3) = (  -0.063357  -0.012333   2.098881 )  

     reciprocal axes: (cart. coord. in units 2 pi/alat)
               b(1) = (  1.000000  0.001638  0.030196 )  
               b(2) = ( -0.000000  0.856753  0.005034 )  
               b(3) = (  0.000000 -0.000000  0.476444 )  


     PseudoPot. # 1 for Zr read from file:
     /data/pseudopotentials/zr_pbe_v1.uspp.F.UPF
     MD5 check sum: 5db81b1e868ab7776c4564c113de050b
     Pseudo is Ultrasoft + core correction, Zval = 12.0
     Generated by new atomic code, or converted to UPF format
     Using radial grid of  887 points,  6 beta functions with: 
                l(1) =   0
                l(2) =   0
                l(3) =   1
                l(4) =   1
                l(5) =   2
                l(6) =   2
     Q(r) pseudized with  6 coefficients,  rinner =    1.200   1.200   1.200
                                                       1.200   1.200

     PseudoPot. # 2 for Ti read from file:
     /data/pseudopotentials/ti_pbe_v1.4.uspp.F.UPF
     MD5 check sum: 88a00a6731bd790ddea75d31a80cb452
     Pseudo is Ultrasoft + core correction, Zval = 12.0
     Generated by new atomic code, or converted to UPF format
     Using radial grid of  851 points,  6 beta functions with: 
                l(1) =   0
                l(2) =   0
                l(3) =   1
                l(4) =   1
                l(5) =   2
                l(6) =   2
     Q(r) pseudized with  6 coefficients,  rinner =    1.000   1.000   1.000
                                                       1.000   1.000

     PseudoPot. # 3 for O  read from file:
     /data/pseudopotentials/O.pbe-n-kjpaw_psl.0.1.UPF
     MD5 check sum: 833c495a5d0f9b75bf046115549bffff
     Pseudo is Projector augmented-wave + core cor, Zval =  6.0
     Generated using &quot;atomic&quot; code by A. Dal Corso  v.6.3
     Shape of augmentation charge: BESSEL
     Using radial grid of 1095 points,  4 beta functions with: 
                l(1) =   0
                l(2) =   0
                l(3) =   1
                l(4) =   1
     Q(r) pseudized with 0 coefficients 


     atomic species   valence    mass     pseudopotential
        Zr            12.00    91.22400     Zr( 1.00)
        Ti            12.00    47.86700     Ti( 1.00)
        O              6.00    15.99900     O ( 1.00)

     No symmetry found



   Cartesian axes

     site n.     atom                  positions (alat units)
         1           Zr  tau(   1) = (  -0.0526097   0.8057840   1.8336429  )
         2           Zr  tau(   2) = (   0.9839580   0.3486811   0.2475839  )
         3           Zr  tau(   3) = (   0.9731628   0.8057542   0.7906966  )
         4           Zr  tau(   4) = (   0.4669612   0.2141270   0.8034955  )
         5           Ti  tau(   5) = (   0.9589503   0.3522964   1.3231259  )
         6           Ti  tau(   6) = (   0.4445301   0.1976293   1.8252012  )
         7           Ti  tau(   7) = (   0.4918543   0.9591200   0.2596084  )
         8           Ti  tau(   8) = (   0.4618781   0.9372362   1.3161807  )
         9           O   tau(   9) = (   0.2307740   0.7183774   0.0929468  )
        10           O   tau(  10) = (   0.2136524   0.7009178   1.1456508  )
        11           O   tau(  11) = (   0.1916229   0.4626009   0.6062952  )
        12           O   tau(  12) = (   0.1816265   0.4311891   1.6567366  )
        13           O   tau(  13) = (   0.2558964   1.0280945   1.6451004  )
        14           O   tau(  14) = (   0.2499496   1.0463591   0.5757733  )
        15           O   tau(  15) = (   0.2099213   0.1132525   1.1430818  )
        16           O   tau(  16) = (   0.2837317   0.1244273   0.0495609  )
        17           O   tau(  17) = (   0.6694777   1.0272907   0.9891121  )
        18           O   tau(  18) = (   0.6655112   1.0438354   2.0401685  )
        19           O   tau(  19) = (   0.6984716   0.1262195   1.4997383  )
        20           O   tau(  20) = (   0.7107894   0.1075438   0.4597514  )
        21           O   tau(  21) = (   0.7315819   0.7073313   0.4325709  )
        22           O   tau(  22) = (   0.7659441   0.4467355   0.9864403  )
        23           O   tau(  23) = (   0.6996265   0.4459341   1.9904859  )
        24           O   tau(  24) = (   0.7295161   0.7076326   1.4736198  )

     number of k points=    36  Gaussian smearing, width (Ry)=  0.0050
                       cart. coord. in units 2pi/alat
        k(    1) = (   0.0000000   0.0000000   0.0000000), wk =   0.0312500
        k(    2) = (   0.0000000   0.0000000   0.1191111), wk =   0.0625000
        k(    3) = (   0.0000000   0.0000000  -0.2382222), wk =   0.0312500
        k(    4) = (   0.0000000   0.2141883   0.0012586), wk =   0.0625000
        k(    5) = (   0.0000000   0.2141883   0.1203697), wk =   0.0625000
        k(    6) = (   0.0000000   0.2141883  -0.2369637), wk =   0.0625000
        k(    7) = (   0.0000000   0.2141883  -0.1178526), wk =   0.0625000
        k(    8) = (   0.0000000  -0.4283766  -0.0025171), wk =   0.0312500
        k(    9) = (   0.0000000  -0.4283766   0.1165940), wk =   0.0625000
        k(   10) = (   0.0000000  -0.4283766  -0.2407394), wk =   0.0312500
        k(   11) = (   0.2500000   0.0004094   0.0075489), wk =   0.0625000
        k(   12) = (   0.2500000   0.0004094   0.1266601), wk =   0.0625000
        k(   13) = (   0.2500000   0.0004094  -0.2306733), wk =   0.0625000
        k(   14) = (   0.2500000   0.0004094  -0.1115622), wk =   0.0625000
        k(   15) = (   0.2500000   0.2145977   0.0088075), wk =   0.0625000
        k(   16) = (   0.2500000   0.2145977   0.1279186), wk =   0.0625000
        k(   17) = (   0.2500000   0.2145977  -0.2294147), wk =   0.0625000
        k(   18) = (   0.2500000   0.2145977  -0.1103036), wk =   0.0625000
        k(   19) = (   0.2500000  -0.4279672   0.0050318), wk =   0.0625000
        k(   20) = (   0.2500000  -0.4279672   0.1241429), wk =   0.0625000
        k(   21) = (   0.2500000  -0.4279672  -0.2331904), wk =   0.0625000
        k(   22) = (   0.2500000  -0.4279672  -0.1140793), wk =   0.0625000
        k(   23) = (   0.2500000  -0.2137789   0.0062904), wk =   0.0625000
        k(   24) = (   0.2500000  -0.2137789   0.1254015), wk =   0.0625000
        k(   25) = (   0.2500000  -0.2137789  -0.2319319), wk =   0.0625000
        k(   26) = (   0.2500000  -0.2137789  -0.1128207), wk =   0.0625000
        k(   27) = (  -0.5000000  -0.0008188  -0.0150979), wk =   0.0312500
        k(   28) = (  -0.5000000  -0.0008188   0.1040132), wk =   0.0625000
        k(   29) = (  -0.5000000  -0.0008188  -0.2533201), wk =   0.0312500
        k(   30) = (  -0.5000000   0.2133695  -0.0138393), wk =   0.0625000
        k(   31) = (  -0.5000000   0.2133695   0.1052718), wk =   0.0625000
        k(   32) = (  -0.5000000   0.2133695  -0.2520615), wk =   0.0625000
        k(   33) = (  -0.5000000   0.2133695  -0.1329504), wk =   0.0625000
        k(   34) = (  -0.5000000  -0.4291954  -0.0176150), wk =   0.0312500
        k(   35) = (  -0.5000000  -0.4291954   0.1014961), wk =   0.0625000
        k(   36) = (  -0.5000000  -0.4291954  -0.2558372), wk =   0.0312500

     Dense  grid:   255193 G-vectors     FFT dimensions: (  60,  72, 125)

     Smooth grid:    90279 G-vectors     FFT dimensions: (  45,  50,  90)

     Estimated max dynamical RAM per process >     268.43 MB

     Estimated total dynamical RAM >       2.10 GB

     Check: negative core charge=   -0.000005

     Initial potential from superposition of free atoms

     starting charge  187.99120, renormalised to  192.00000

     negative rho (up, down):  2.552E-01 0.000E+00
     Starting wfcs are  156 randomized atomic wfcs
     Checking if some PAW data can be deallocated... 

     total cpu time spent up to now is      172.3 secs

     Self-consistent Calculation

     iteration #  1     ecut=    50.00 Ry     beta= 0.30
     Davidson diagonalization with overlap
     ethr =  1.00E-02,  avg # of iterations =  2.0

     negative rho (up, down):  2.549E-01 0.000E+00

     total cpu time spent up to now is      549.9 secs

     total energy              =   -1534.86247818 Ry
     estimated scf accuracy    <      22.90502683 Ry

     iteration #  2     ecut=    50.00 Ry     beta= 0.30
     Davidson diagonalization with overlap
     ethr =  1.00E-02,  avg # of iterations =  5.9

     negative rho (up, down):  2.529E-01 0.000E+00

     total cpu time spent up to now is     1152.6 secs

     total energy              =   -1519.80493809 Ry
     estimated scf accuracy    <     304.08482808 Ry

     iteration #  3     ecut=    50.00 Ry     beta= 0.30
     Davidson diagonalization with overlap
     ethr =  1.00E-02,  avg # of iterations =  4.8

     negative rho (up, down):  2.547E-01 0.000E+00

     total cpu time spent up to now is     1609.0 secs

     total energy              =   -1543.97877291 Ry
     estimated scf accuracy    <       5.11833721 Ry

     iteration #  4     ecut=    50.00 Ry     beta= 0.30
     Davidson diagonalization with overlap
     ethr =  2.67E-03,  avg # of iterations =  6.0

     negative rho (up, down):  2.580E-01 0.000E+00

     total cpu time spent up to now is     2011.3 secs

     total energy              =   -1543.44485390 Ry
     estimated scf accuracy    <       2.58221178 Ry

     iteration #  5     ecut=    50.00 Ry     beta= 0.30
     Davidson diagonalization with overlap
     ethr =  1.34E-03,  avg # of iterations =  7.2

     negative rho (up, down):  2.594E-01 0.000E+00

     total cpu time spent up to now is     2523.3 secs

     total energy              =   -1543.68902119 Ry
     estimated scf accuracy    <       0.76943172 Ry

     iteration #  6     ecut=    50.00 Ry     beta= 0.30
     Davidson diagonalization with overlap
     ethr =  4.01E-04,  avg # of iterations =  2.8

     negative rho (up, down):  2.615E-01 0.000E+00

     total cpu time spent up to now is     2876.7 secs

     total energy              =   -1543.65216548 Ry
     estimated scf accuracy    <       0.45167373 Ry

     iteration #  7     ecut=    50.00 Ry     beta= 0.30
     Davidson diagonalization with overlap
     ethr =  2.35E-04,  avg # of iterations =  4.7

     negative rho (up, down):  2.641E-01 0.000E+00

     total cpu time spent up to now is     3230.5 secs

     total energy              =   -1543.62319781 Ry
     estimated scf accuracy    <       0.21239632 Ry

     iteration #  8     ecut=    50.00 Ry     beta= 0.30
     Davidson diagonalization with overlap
     ethr =  1.11E-04,  avg # of iterations = 11.8

     negative rho (up, down):  2.653E-01 0.000E+00

     total cpu time spent up to now is     3709.9 secs

     total energy              =   -1543.62851375 Ry
     estimated scf accuracy    <       0.04308991 Ry

     iteration #  9     ecut=    50.00 Ry     beta= 0.30
     Davidson diagonalization with overlap
     ethr =  2.24E-05,  avg # of iterations =  9.7

     negative rho (up, down):  2.662E-01 0.000E+00

     total cpu time spent up to now is     4160.4 secs

     total energy              =   -1543.63078145 Ry
     estimated scf accuracy    <       0.00655809 Ry

     iteration # 10     ecut=    50.00 Ry     beta= 0.30
     Davidson diagonalization with overlap
     c_bands:  1 eigenvalues not converged
     c_bands:  1 eigenvalues not converged
     c_bands:  1 eigenvalues not converged
     ethr =  3.42E-06,  avg # of iterations = 13.9

     negative rho (up, down):  2.664E-01 0.000E+00

     total cpu time spent up to now is     4769.6 secs

     total energy              =   -1543.63211623 Ry
     estimated scf accuracy    <       0.00260184 Ry

     iteration # 11     ecut=    50.00 Ry     beta= 0.30
     Davidson diagonalization with overlap
     ethr =  1.36E-06,  avg # of iterations =  3.3

     negative rho (up, down):  2.663E-01 0.000E+00

     total cpu time spent up to now is     5113.2 secs

     total energy              =   -1543.63217523 Ry
     estimated scf accuracy    <       0.00042759 Ry

     iteration # 12     ecut=    50.00 Ry     beta= 0.30
     Davidson diagonalization with overlap
     ethr =  2.23E-07,  avg # of iterations =  3.5

     negative rho (up, down):  2.663E-01 0.000E+00

     total cpu time spent up to now is     5511.7 secs

     total energy              =   -1543.63229427 Ry
     estimated scf accuracy    <       0.00012089 Ry

     iteration # 13     ecut=    50.00 Ry     beta= 0.30
     Davidson diagonalization with overlap
     ethr =  6.30E-08,  avg # of iterations =  2.0

     negative rho (up, down):  2.663E-01 0.000E+00

     total cpu time spent up to now is     5883.5 secs

     total energy              =   -1543.63231324 Ry
     estimated scf accuracy    <       0.00001157 Ry

     iteration # 14     ecut=    50.00 Ry     beta= 0.30
     Davidson diagonalization with overlap
     ethr =  6.03E-09,  avg # of iterations =  2.9

     negative rho (up, down):  2.663E-01 0.000E+00

     total cpu time spent up to now is     6257.8 secs

     total energy              =   -1543.63231523 Ry
     estimated scf accuracy    <       0.00000265 Ry

     iteration # 15     ecut=    50.00 Ry     beta= 0.30
     Davidson diagonalization with overlap
     ethr =  1.38E-09,  avg # of iterations =  2.4

     negative rho (up, down):  2.663E-01 0.000E+00

     total cpu time spent up to now is     6635.4 secs

     total energy              =   -1543.63231548 Ry
     estimated scf accuracy    <       0.00000092 Ry

     iteration # 16     ecut=    50.00 Ry     beta= 0.30
     Davidson diagonalization with overlap
     ethr =  4.78E-10,  avg # of iterations =  2.0

     negative rho (up, down):  2.663E-01 0.000E+00

     total cpu time spent up to now is     6969.2 secs

     total energy              =   -1543.63231556 Ry
     estimated scf accuracy    <       0.00000014 Ry

     iteration # 17     ecut=    50.00 Ry     beta= 0.30
     Davidson diagonalization with overlap
     ethr =  7.51E-11,  avg # of iterations =  2.9

     negative rho (up, down):  2.663E-01 0.000E+00

     total cpu time spent up to now is     7356.3 secs

     total energy              =   -1543.63231560 Ry
     estimated scf accuracy    <       0.00000002 Ry

     iteration # 18     ecut=    50.00 Ry     beta= 0.30
     Davidson diagonalization with overlap
     ethr =  9.29E-12,  avg # of iterations =  3.9

     negative rho (up, down):  2.663E-01 0.000E+00

     total cpu time spent up to now is     7773.7 secs

     End of self-consistent calculation

          k = 0.0000 0.0000 0.0000 ( 11265 PWs)   bands (ev):

   -47.5419 -47.5027 -47.4749 -47.3345 -38.8347 -38.7854 -38.7401 -38.6148
   -23.8421 -23.8247 -23.7842 -23.7668 -23.7576 -23.7437 -23.7217 -23.7116
   -23.6909 -23.6404 -23.6036 -23.5753 -17.1931 -17.0948 -17.0710 -17.0179
   -16.9637 -16.9465 -16.8954 -16.8590 -16.8275 -16.7521 -16.7335 -16.7172
    -8.4312  -7.7703  -7.6732  -7.5566  -7.4517  -7.3249  -7.2303  -7.1837
    -7.1094  -7.0484  -7.0052  -6.9207  -6.8151  -6.7772  -6.6767  -6.6080
     4.2546   4.3728   4.4098   4.5468   4.7616   4.8476   5.0196   5.0828
     5.1256   5.2200   5.2865   5.3224   5.5151   5.5260   5.6997   5.7544
     5.9069   6.0063   6.1120   6.2898   6.3909   6.5223   6.6437   6.7037
     6.7245   6.7790   6.9112   6.9669   7.0380   7.1411   7.2588   7.3135
     7.4212   7.5060   7.6084   7.6354   7.9751   8.0322   8.0941   8.2766
     8.3711   8.4503   8.4807   8.5455   8.6221   8.6795   8.7662   8.8340
    11.7719  11.8871  11.9536  12.0752  12.1711  12.2644  12.3358  12.3600
    12.4366  12.5143  12.6854  13.0233  13.2466  13.4633  13.5880  13.7534
    13.8890  13.9185  13.9693

          k = 0.0000 0.0000 0.1191 ( 11247 PWs)   bands (ev):

   -47.5419 -47.5027 -47.4749 -47.3345 -38.8347 -38.7854 -38.7401 -38.6148
   -23.8421 -23.8247 -23.7842 -23.7668 -23.7579 -23.7435 -23.7217 -23.7115
   -23.6909 -23.6404 -23.6036 -23.5753 -17.1937 -17.0949 -17.0703 -17.0174
   -16.9637 -16.9462 -16.8954 -16.8592 -16.8273 -16.7528 -16.7335 -16.7173
    -8.3760  -7.9826  -7.5720  -7.4984  -7.4462  -7.3065  -7.2913  -7.1725
    -7.0916  -7.0257  -6.9582  -6.9001  -6.8356  -6.7952  -6.7041  -6.6273
     4.3096   4.4216   4.4815   4.6030   4.7739   4.8194   4.8740   4.9343
     5.0397   5.2037   5.3147   5.3658   5.4938   5.5217   5.6312   5.8118
     5.8790   5.9781   6.1609   6.2256   6.4159   6.5351   6.6406   6.7621
     6.8074   6.8706   6.9433   7.0551   7.0844   7.1605   7.2060   7.2859
     7.3853   7.5453   7.6599   7.7194   7.8961   8.0016   8.0998   8.1927
     8.2540   8.3946   8.5063   8.5625   8.5965   8.6911   8.7563   8.8533
    11.7658  11.8954  11.9683  12.0870  12.1674  12.2587  12.3238  12.3647
    12.4470  12.5124  12.6618  13.0234  13.2071  13.4966  13.6044  13.7285
    13.8288  13.9586  14.0465

          k = 0.0000 0.0000-0.2382 ( 11252 PWs)   bands (ev):

   -47.5419 -47.5027 -47.4749 -47.3345 -38.8347 -38.7854 -38.7401 -38.6148
   -23.8420 -23.8247 -23.7842 -23.7668 -23.7582 -23.7434 -23.7217 -23.7115
   -23.6908 -23.6404 -23.6036 -23.5753 -17.1943 -17.0949 -17.0697 -17.0170
   -16.9637 -16.9460 -16.8954 -16.8593 -16.8271 -16.7535 -16.7335 -16.7173
    -8.2421  -8.1902  -7.5365  -7.4800  -7.4342  -7.3325  -7.2751  -7.1931
    -7.0341  -6.9804  -6.9264  -6.8946  -6.8510  -6.8249  -6.7441  -6.6443
     4.4168   4.4891   4.5389   4.6090   4.7854   4.8298   4.8415   4.8572
     4.9184   4.9909   5.3132   5.3983   5.4261   5.5452   5.6383   5.7383
     5.9551   6.0821   6.1902   6.2349   6.3945   6.4984   6.6362   6.7691
     6.7947   6.8507   6.9353   6.9870   7.2231   7.2752   7.3549   7.4436
     7.4823   7.5170   7.6201   7.6960   7.8886   7.9263   7.9546   8.0586
     8.2769   8.3468   8.4714   8.5679   8.6278   8.6938   8.7404   8.8673
    11.7672  11.8956  11.9872  12.0981  12.1545  12.2675  12.3012  12.3867
    12.4396  12.5171  12.6351  13.0231  13.1743  13.5075  13.6235  13.7311
    13.7886  14.0332  14.0552

          k = 0.0000 0.2142 0.0013 ( 11296 PWs)   bands (ev):

   -47.5419 -47.5026 -47.4749 -47.3345 -38.8344 -38.7853 -38.7403 -38.6150
   -23.8416 -23.8243 -23.7831 -23.7649 -23.7574 -23.7435 -23.7210 -23.7114
   -23.6909 -23.6415 -23.6063 -23.5770 -17.1697 -17.0920 -17.0414 -17.0108
   -16.9650 -16.9462 -16.9024 -16.8782 -16.8261 -16.7749 -16.7501 -16.7291
    -8.2803  -7.6601  -7.5983  -7.5149  -7.4300  -7.3645  -7.3061  -7.1619
    -7.1326  -7.0568  -6.9935  -6.9480  -6.8935  -6.8612  -6.7361  -6.6981
     4.4024   4.5311   4.6339   4.7454   4.8682   5.0087   5.0659   5.0985
     5.1381   5.2367   5.2842   5.4664   5.6246   5.7383   5.7990   5.8496
     5.9058   5.9664   6.0296   6.1273   6.3004   6.3794   6.4494   6.4961
     6.6759   6.7527   6.8226   6.9964   7.0533   7.1163   7.1960   7.3236
     7.4748   7.5229   7.5852   7.7055   7.7561   7.8522   7.8771   7.9820
     8.0289   8.3017   8.3934   8.4302   8.5661   8.6560   8.6861   8.7688
    11.7796  11.9827  12.0258  12.1191  12.1812  12.3099  12.3485  12.4254
    12.4771  12.6041  12.7034  13.0298  13.2918  13.4847  13.6379  13.7030
    13.8450  13.9625  14.0333

          k = 0.0000 0.2142 0.1204 ( 11292 PWs)   bands (ev):

   -47.5419 -47.5026 -47.4749 -47.3345 -38.8344 -38.7853 -38.7403 -38.6150
   -23.8416 -23.8242 -23.7831 -23.7649 -23.7573 -23.7434 -23.7210 -23.7114
   -23.6909 -23.6415 -23.6062 -23.5770 -17.1699 -17.0908 -17.0415 -17.0111
   -16.9652 -16.9460 -16.9027 -16.8798 -16.8253 -16.7749 -16.7497 -16.7290
    -8.2291  -7.8708  -7.5215  -7.4844  -7.3955  -7.3440  -7.2770  -7.1774
    -7.1112  -7.0650  -6.9803  -6.9354  -6.9103  -6.8607  -6.7632  -6.7102
     4.4518   4.5817   4.6239   4.7968   4.8668   4.9455   4.9887   5.0990
     5.1364   5.1886   5.3200   5.4648   5.5082   5.7379   5.8031   5.8675
     5.9496   6.0080   6.0614   6.1081   6.1556   6.2815   6.4351   6.6296
     6.7268   6.7974   6.9736   6.9997   7.0813   7.1901   7.2284   7.2853
     7.4198   7.4539   7.5348   7.6051   7.7210   7.8899   7.9741   7.9954
     8.1178   8.2500   8.3231   8.4346   8.5572   8.6377   8.6941   8.7675
    11.7750  11.9813  12.0323  12.0867  12.2020  12.3158  12.3520  12.4006
    12.4952  12.5859  12.6986  13.0316  13.2764  13.5266  13.6332  13.6693
    13.8279  13.9823  14.0861

          k = 0.0000 0.2142-0.2370 ( 11299 PWs)   bands (ev):

   -47.5419 -47.5027 -47.4749 -47.3345 -38.8344 -38.7853 -38.7403 -38.6150
   -23.8415 -23.8242 -23.7831 -23.7650 -23.7575 -23.7433 -23.7210 -23.7114
   -23.6908 -23.6415 -23.6062 -23.5770 -17.1709 -17.0899 -17.0412 -17.0104
   -16.9658 -16.9460 -16.9027 -16.8801 -16.8246 -16.7752 -16.7500 -16.7292
    -8.1189  -8.0469  -7.5310  -7.4531  -7.3667  -7.3417  -7.2496  -7.2092
    -7.0633  -7.0342  -6.9711  -6.9600  -6.9026  -6.8579  -6.8093  -6.7207
     4.5399   4.5573   4.7316   4.8006   4.8427   4.8958   4.9405   4.9720
     5.1514   5.2096   5.3608   5.4509   5.5115   5.5866   5.7875   5.8674
     6.0112   6.0534   6.0764   6.1167   6.1802   6.2002   6.4826   6.5415
     6.7996   6.9311   6.9798   7.0393   7.1208   7.1806   7.2279   7.2863
     7.3325   7.3816   7.5556   7.6493   7.7439   7.7988   8.0347   8.0957
     8.1412   8.2088   8.2730   8.3341   8.6056   8.6314   8.6778   8.7704
    11.7676  11.9639  12.0350  12.0901  12.2040  12.3108  12.3469  12.4260
    12.4872  12.5759  12.7024  13.0191  13.2497  13.5378  13.6488  13.7368
    13.7906  13.9620  14.0824

          k = 0.0000 0.2142-0.1179 ( 11307 PWs)   bands (ev):

   -47.5419 -47.5027 -47.4749 -47.3345 -38.8344 -38.7853 -38.7403 -38.6150
   -23.8415 -23.8242 -23.7831 -23.7649 -23.7576 -23.7433 -23.7210 -23.7113
   -23.6908 -23.6415 -23.6062 -23.5770 -17.1706 -17.0911 -17.0410 -17.0101
   -16.9657 -16.9462 -16.9024 -16.8785 -16.8255 -16.7751 -16.7504 -16.7292
    -8.2323  -7.8620  -7.5320  -7.4641  -7.3984  -7.3525  -7.2812  -7.1952
    -7.1189  -7.0426  -6.9871  -6.9354  -6.8932  -6.8567  -6.7746  -6.7098
     4.4467   4.5829   4.6335   4.7929   4.8726   4.9263   4.9805   5.0772
     5.1710   5.2048   5.3107   5.4528   5.5202   5.7230   5.8255   5.8496
     5.9584   6.0061   6.0775   6.1179   6.1733   6.2529   6.4732   6.6171
     6.7275   6.7919   6.8961   6.9921   7.0933   7.1741   7.2306   7.3227
     7.4120   7.4708   7.5393   7.6137   7.7001   7.8962   7.9717   8.0016
     8.1273   8.2735   8.3240   8.3962   8.5500   8.6635   8.6863   8.7681
    11.7706  11.9693  12.0282  12.1206  12.1773  12.3093  12.3539  12.4335
    12.4647  12.6138  12.7012  13.0163  13.2612  13.5161  13.6560  13.7356
    13.8224  13.9289  14.0359

          k = 0.0000-0.4284-0.0025 ( 11324 PWs)   bands (ev):

   -47.5419 -47.5026 -47.4749 -47.3345 -38.8341 -38.7852 -38.7405 -38.6152
   -23.8410 -23.8238 -23.7819 -23.7631 -23.7569 -23.7432 -23.7203 -23.7111
   -23.6908 -23.6428 -23.6089 -23.5788 -17.1463 -17.0871 -16.9952 -16.9907
   -16.9709 -16.9500 -16.9204 -16.8940 -16.8430 -16.8124 -16.7528 -16.7372
    -7.9531  -7.8379  -7.5019  -7.4499  -7.3765  -7.3299  -7.2763  -7.1910
    -7.1651  -7.0948  -7.0359  -6.9970  -6.9216  -6.8944  -6.8644  -6.7986
     4.6993   4.7904   4.8764   4.9336   5.0227   5.0523   5.1395   5.1989
     5.2616   5.3721   5.4300   5.4413   5.5003   5.5510   5.6184   5.6524
     5.9057   6.0372   6.1029   6.1531   6.3050   6.3268   6.4622   6.5039
     6.7460   6.8184   6.8521   6.9361   7.0125   7.0493   7.1891   7.2309
     7.2639   7.3310   7.5032   7.5640   7.5863   7.6366   7.7612   7.8183
     7.9064   8.0202   8.2810   8.3816   8.4630   8.5525   8.6770   8.6875
    11.7942  12.0610  12.1458  12.1526  12.2249  12.3078  12.3864  12.5014
    12.5544  12.6745  12.7039  13.0507  13.2567  13.5064  13.6871  13.7046
    13.9491  14.0567  14.1012

          k = 0.0000-0.4284 0.1166 ( 11299 PWs)   bands (ev):

   -47.5419 -47.5026 -47.4749 -47.3345 -38.8341 -38.7852 -38.7405 -38.6152
   -23.8410 -23.8238 -23.7820 -23.7631 -23.7568 -23.7432 -23.7203 -23.7111
   -23.6908 -23.6428 -23.6089 -23.5787 -17.1468 -17.0855 -16.9953 -16.9914
   -16.9707 -16.9501 -16.9209 -16.8955 -16.8421 -16.8123 -16.7525 -16.7371
    -7.9226  -7.8076  -7.6461  -7.5252  -7.2898  -7.2742  -7.2239  -7.1806
    -7.1602  -7.0960  -7.0350  -7.0106  -6.9266  -6.9007  -6.8812  -6.8079
     4.7404   4.8070   4.8553   4.9262   4.9559   4.9921   5.0877   5.1448
     5.3481   5.4004   5.4684   5.5027   5.5461   5.6008   5.6261   5.6993
     5.9364   6.0354   6.1120   6.1834   6.2926   6.3276   6.4393   6.4785
     6.5987   6.6581   6.6909   6.7809   6.9682   7.1256   7.2247   7.3365
     7.3668   7.4575   7.5168   7.5568   7.6001   7.7136   7.7260   7.8204
     8.0123   8.0992   8.1714   8.2698   8.5411   8.6021   8.6298   8.6591
    11.7817  12.0287  12.1303  12.1567  12.2207  12.3203  12.3684  12.4903
    12.5492  12.6573  12.7381  13.0358  13.2684  13.5757  13.6841  13.7113
    13.9343  14.0017  14.1073

          k = 0.0000-0.4284-0.2407 ( 11318 PWs)   bands (ev):

   -47.5419 -47.5026 -47.4749 -47.3345 -38.8341 -38.7852 -38.7405 -38.6152
   -23.8410 -23.8238 -23.7820 -23.7632 -23.7567 -23.7431 -23.7204 -23.7112
   -23.6908 -23.6428 -23.6089 -23.5787 -17.1471 -17.0839 -16.9954 -16.9922
   -16.9704 -16.9503 -16.9213 -16.8969 -16.8412 -16.8122 -16.7522 -16.7370
    -7.8695  -7.7547  -7.7508  -7.6215  -7.2685  -7.2076  -7.1916  -7.1661
    -7.1283  -7.1014  -7.0604  -6.9953  -6.9485  -6.9069  -6.9021  -6.8152
     4.7910   4.8135   4.8617   4.8927   4.9393   4.9607   5.0264   5.0702
     5.3774   5.4047   5.5160   5.5474   5.5965   5.6331   5.6802   5.8167
     5.9878   6.0362   6.1117   6.1982   6.2338   6.2966   6.3984   6.4799
     6.4983   6.5091   6.5999   6.6662   6.9764   7.1424   7.1683   7.3639
     7.3784   7.5320   7.5912   7.6693   7.6929   7.7329   7.7760   7.8206
     7.9774   8.0877   8.1604   8.2447   8.5429   8.5637   8.6394   8.6572
    11.7696  12.0006  12.1196  12.1532  12.2154  12.3324  12.3462  12.5030
    12.5323  12.6402  12.7648  13.0236  13.2720  13.6599  13.6865  13.7702
    13.8228  13.9948  14.0843

          k = 0.2500 0.0004 0.0075 ( 11248 PWs)   bands (ev):

   -47.5418 -47.5027 -47.4749 -47.3345 -38.8344 -38.7854 -38.7400 -38.6151
   -23.8413 -23.8239 -23.7874 -23.7702 -23.7487 -23.7421 -23.7236 -23.7110
   -23.6911 -23.6416 -23.6062 -23.5775 -17.1708 -17.0882 -17.0448 -17.0100
   -16.9687 -16.9517 -16.9143 -16.8693 -16.8270 -16.7706 -16.7571 -16.7243
    -8.2143  -7.7061  -7.6031  -7.4475  -7.3859  -7.2947  -7.2359  -7.2040
    -7.1855  -7.0916  -7.0120  -7.0047  -6.8796  -6.8530  -6.7951  -6.7169
     4.5129   4.5431   4.5986   4.6571   4.7376   4.9495   5.0577   5.1076
     5.1929   5.2371   5.2675   5.2940   5.3326   5.4463   5.7216   5.7939
     5.9827   6.0465   6.1480   6.1982   6.2690   6.3667   6.5457   6.6017
     6.6628   6.7699   6.8239   6.8761   7.0332   7.1959   7.3347   7.4707
     7.5478   7.6680   7.7245   7.7821   7.9546   8.0244   8.0579   8.1450
     8.2215   8.2985   8.3363   8.3863   8.5393   8.5889   8.6733   8.7631
    11.9162  11.9740  12.0853  12.1392  12.2193  12.3150  12.4066  12.4505
    12.4817  12.6006  12.6816  12.9030  13.3374  13.4777  13.5501  13.6854
    13.7567  13.8601  14.0295

          k = 0.2500 0.0004 0.1267 ( 11257 PWs)   bands (ev):

   -47.5418 -47.5027 -47.4749 -47.3345 -38.8344 -38.7854 -38.7400 -38.6151
   -23.8412 -23.8239 -23.7875 -23.7702 -23.7488 -23.7421 -23.7236 -23.7109
   -23.6911 -23.6416 -23.6062 -23.5775 -17.1711 -17.0877 -17.0445 -17.0100
   -16.9690 -16.9525 -16.9138 -16.8691 -16.8270 -16.7706 -16.7572 -16.7243
    -8.1727  -7.8312  -7.5791  -7.4439  -7.3764  -7.2926  -7.2230  -7.1833
    -7.1452  -7.0865  -7.0117  -6.9628  -6.9029  -6.8697  -6.7949  -6.7545
     4.4750   4.5405   4.6632   4.6791   4.8400   4.9662   5.0563   5.0844
     5.1187   5.1541   5.1911   5.3480   5.4088   5.5111   5.7264   5.7812
     5.8611   5.9461   6.0363   6.1137   6.3070   6.3733   6.4655   6.5912
     6.7090   6.8167   6.9125   7.0568   7.2136   7.2914   7.3990   7.4374
     7.5519   7.5992   7.6777   7.7947   7.8998   7.9418   8.0507   8.1454
     8.2205   8.2558   8.3137   8.4029   8.4923   8.5999   8.6851   8.7781
    11.9012  11.9640  12.0711  12.1396  12.2344  12.2646  12.4007  12.4811
    12.5052  12.6075  12.6676  12.8956  13.3022  13.4855  13.5465  13.6876
    13.7775  13.9313  14.0564

          k = 0.2500 0.0004-0.2307 ( 11259 PWs)   bands (ev):

   -47.5418 -47.5027 -47.4749 -47.3345 -38.8344 -38.7854 -38.7400 -38.6151
   -23.8413 -23.8239 -23.7874 -23.7702 -23.7489 -23.7420 -23.7237 -23.7108
   -23.6911 -23.6416 -23.6062 -23.5775 -17.1718 -17.0874 -17.0445 -17.0095
   -16.9692 -16.9522 -16.9131 -16.8699 -16.8265 -16.7707 -16.7577 -16.7245
    -8.0795  -7.9953  -7.5014  -7.4568  -7.3531  -7.3183  -7.2692  -7.1992
    -7.0776  -7.0318  -6.9961  -6.9539  -6.9159  -6.8862  -6.8182  -6.7782
     4.4706   4.5471   4.7137   4.7962   4.8793   4.9048   4.9455   5.0341
     5.0635   5.1099   5.2217   5.3331   5.5488   5.6012   5.6462   5.7104
     5.8157   5.9085   6.0254   6.1344   6.2218   6.3733   6.5260   6.6591
     6.7258   6.7849   7.0424   7.1204   7.2079   7.2512   7.3631   7.4365
     7.5162   7.5913   7.7604   7.8202   7.9017   7.9475   8.0372   8.1478
     8.1755   8.1999   8.2902   8.3710   8.5374   8.6214   8.6958   8.7470
    11.8999  11.9686  12.0491  12.1213  12.2222  12.2886  12.4031  12.4736
    12.5317  12.5809  12.6752  12.9051  13.2768  13.4515  13.5340  13.7130
    13.7950  13.9349  14.0081

          k = 0.2500 0.0004-0.1116 ( 11270 PWs)   bands (ev):

   -47.5418 -47.5027 -47.4749 -47.3345 -38.8344 -38.7854 -38.7400 -38.6151
   -23.8413 -23.8239 -23.7874 -23.7702 -23.7488 -23.7420 -23.7236 -23.7109
   -23.6911 -23.6416 -23.6062 -23.5775 -17.1716 -17.0879 -17.0447 -17.0095
   -16.9689 -16.9514 -16.9136 -16.8701 -16.8266 -16.7706 -16.7576 -16.7244
    -8.1688  -7.8649  -7.4912  -7.4411  -7.3641  -7.3257  -7.2787  -7.1952
    -7.1647  -7.0576  -6.9957  -6.9745  -6.8935  -6.8665  -6.8083  -6.7399
     4.5015   4.5770   4.6309   4.6822   4.7773   4.9314   5.0192   5.0682
     5.1105   5.1711   5.2448   5.3174   5.4342   5.5212   5.7233   5.7801
     5.9041   5.9927   6.0424   6.1993   6.2812   6.3940   6.5307   6.6048
     6.7153   6.8114   6.8856   7.0027   7.0875   7.2290   7.2878   7.4125
     7.4535   7.6155   7.7349   7.8696   7.9993   8.0185   8.0826   8.1340
     8.1902   8.2552   8.3233   8.3694   8.5441   8.6147   8.6622   8.7477
    11.9131  11.9747  12.0678  12.1162  12.2302  12.3262  12.3967  12.4433
    12.5202  12.5726  12.6863  12.9113  13.3066  13.4459  13.5346  13.7150
    13.7851  13.8744  13.9612

          k = 0.2500 0.2146 0.0088 ( 11261 PWs)   bands (ev):

   -47.5418 -47.5027 -47.4749 -47.3345 -38.8342 -38.7852 -38.7401 -38.6152
   -23.8412 -23.8236 -23.7870 -23.7716 -23.7487 -23.7419 -23.7244 -23.7115
   -23.6911 -23.6403 -23.6078 -23.5758 -17.1985 -17.0928 -17.0229 -16.9940
   -16.9702 -16.9499 -16.9187 -16.8603 -16.8208 -16.8050 -16.7550 -16.7098
    -8.1106  -7.6990  -7.5998  -7.5055  -7.4194  -7.3503  -7.3030  -7.1871
    -7.1055  -7.0885  -7.0576  -6.9604  -6.9126  -6.8571  -6.8135  -6.6758
     4.5423   4.6302   4.7135   4.7695   4.9000   5.0075   5.0366   5.1113
     5.1844   5.2520   5.3091   5.4113   5.4750   5.5403   5.5886   5.6445
     5.8910   5.9505   6.1377   6.1674   6.4269   6.5418   6.5966   6.6607
     6.7725   6.8132   6.8624   6.9158   7.0146   7.1075   7.1849   7.3936
     7.4967   7.5559   7.6231   7.6940   7.8603   7.9102   8.0097   8.0874
     8.1023   8.1453   8.2307   8.3685   8.4496   8.5033   8.5506   8.6342
    11.9075  11.9880  12.0741  12.1819  12.2503  12.3290  12.4160  12.4524
    12.5434  12.6309  12.7380  12.9185  13.3190  13.4322  13.5592  13.6772
    13.7340  13.8367  13.9980

          k = 0.2500 0.2146 0.1279 ( 11282 PWs)   bands (ev):

   -47.5418 -47.5027 -47.4749 -47.3345 -38.8342 -38.7852 -38.7401 -38.6152
   -23.8412 -23.8236 -23.7870 -23.7716 -23.7486 -23.7419 -23.7244 -23.7115
   -23.6911 -23.6403 -23.6078 -23.5758 -17.1983 -17.0921 -17.0227 -16.9947
   -16.9703 -16.9503 -16.9193 -16.8604 -16.8208 -16.8048 -16.7542 -16.7097
    -8.0727  -7.8055  -7.6124  -7.4823  -7.3956  -7.3139  -7.2474  -7.1737
    -7.1204  -7.1007  -7.0665  -7.0054  -6.9205  -6.8419  -6.8054  -6.6817
     4.5868   4.6190   4.7345   4.7693   4.8709   5.0033   5.0533   5.1157
     5.1475   5.2222   5.3419   5.4304   5.4632   5.5663   5.6067   5.6724
     5.8085   5.9206   6.1062   6.1984   6.3564   6.4275   6.5153   6.6312
     6.7754   6.8271   6.9467   7.0053   7.1151   7.2059   7.3293   7.3791
     7.4797   7.5909   7.6194   7.6982   7.8155   7.8780   7.9407   8.0001
     8.1287   8.1624   8.2382   8.3205   8.4323   8.5002   8.5566   8.6622
    11.9122  11.9611  12.0608  12.1790  12.2475  12.3480  12.3820  12.4817
    12.5322  12.6423  12.7340  12.9258  13.2791  13.5034  13.5760  13.6272
    13.7533  13.8542  14.0052

          k = 0.2500 0.2146-0.2294 ( 11278 PWs)   bands (ev):

   -47.5418 -47.5027 -47.4749 -47.3345 -38.8342 -38.7852 -38.7401 -38.6152
   -23.8412 -23.8235 -23.7870 -23.7716 -23.7487 -23.7419 -23.7244 -23.7115
   -23.6911 -23.6403 -23.6078 -23.5758 -17.1989 -17.0916 -17.0224 -16.9941
   -16.9712 -16.9507 -16.9184 -16.8606 -16.8203 -16.8052 -16.7546 -16.7098
    -8.0010  -7.9243  -7.6153  -7.4600  -7.3685  -7.2520  -7.2434  -7.2048
    -7.1462  -7.1049  -7.0747  -6.9906  -6.9301  -6.8390  -6.8032  -6.6879
     4.5963   4.6579   4.7229   4.7826   4.9055   4.9402   5.0371   5.0697
     5.1633   5.2333   5.3732   5.3983   5.4837   5.5613   5.6688   5.7271
     5.8179   5.9098   5.9819   6.1072   6.2809   6.4244   6.5510   6.6039
     6.7612   6.7909   6.9677   7.0715   7.1417   7.2982   7.3581   7.4965
     7.5523   7.6155   7.6696   7.7129   7.7845   7.8269   7.9099   7.9672
     8.0167   8.0882   8.2769   8.3332   8.4170   8.4801   8.5878   8.6527
    11.9090  11.9716  12.0564  12.1674  12.2432  12.3143  12.3848  12.4690
    12.5845  12.6304  12.7307  12.9269  13.2561  13.4278  13.5423  13.7267
    13.7886  13.8693  14.0250

          k = 0.2500 0.2146-0.1103 ( 11300 PWs)   bands (ev):

   -47.5418 -47.5027 -47.4749 -47.3345 -38.8342 -38.7852 -38.7401 -38.6152
   -23.8412 -23.8236 -23.7870 -23.7716 -23.7488 -23.7419 -23.7244 -23.7114
   -23.6911 -23.6403 -23.6078 -23.5758 -17.1991 -17.0923 -17.0226 -16.9934
   -16.9711 -16.9504 -16.9177 -16.8605 -16.8202 -16.8054 -16.7553 -16.7099
    -8.0764  -7.8094  -7.5878  -7.4750  -7.3759  -7.3343  -7.2748  -7.2088
    -7.1283  -7.0920  -7.0660  -6.9450  -6.9301  -6.8466  -6.8125  -6.6829
     4.5522   4.6798   4.7028   4.7860   4.8680   4.9703   5.0402   5.1077
     5.1600   5.2510   5.3630   5.3913   5.4934   5.5363   5.6171   5.6931
     5.8934   5.9513   6.0075   6.1670   6.2771   6.5246   6.6067   6.6265
     6.6606   6.8005   6.9435   7.0087   7.1380   7.2176   7.3284   7.3546
     7.4149   7.6087   7.6877   7.7497   7.7783   7.8907   7.9627   8.0232
     8.0562   8.1744   8.2287   8.3654   8.4405   8.4821   8.5570   8.6373
    11.9059  11.9962  12.0733  12.1647  12.2470  12.3110  12.3917  12.4590
    12.5868  12.6242  12.7321  12.9187  13.2815  13.4001  13.5182  13.7260
    13.8056  13.8724  14.0176

          k = 0.2500-0.4280 0.0050 ( 11291 PWs)   bands (ev):

   -47.5418 -47.5027 -47.4749 -47.3345 -38.8341 -38.7851 -38.7403 -38.6153
   -23.8415 -23.8239 -23.7875 -23.7712 -23.7481 -23.7418 -23.7246 -23.7110
   -23.6911 -23.6414 -23.6058 -23.5770 -17.1783 -17.0879 -17.0508 -17.0106
   -16.9691 -16.9509 -16.9243 -16.8568 -16.8252 -16.7701 -16.7533 -16.7220
    -7.8891  -7.7871  -7.6139  -7.5879  -7.4498  -7.4154  -7.3324  -7.2553
    -7.0664  -7.0276  -6.9869  -6.9357  -6.8974  -6.8593  -6.8224  -6.7345
     4.6349   4.7219   4.8219   4.9429   4.9615   5.0435   5.1241   5.1473
     5.1851   5.2767   5.3440   5.3896   5.4210   5.4622   5.6601   5.7262
     5.9177   6.0752   6.1540   6.3072   6.3827   6.4281   6.4847   6.5560
     6.7809   6.8241   6.9237   6.9827   7.0418   7.1690   7.2332   7.3224
     7.4396   7.5039   7.5327   7.6329   7.6722   7.7489   7.7795   7.8813
     8.0149   8.0753   8.2674   8.2978   8.3388   8.4281   8.4827   8.5538
    11.8721  12.0184  12.0999  12.1404  12.2164  12.3441  12.4618  12.5251
    12.6069  12.6777  12.7581  12.9068  13.3031  13.4145  13.5047  13.6402
    13.7703  13.8125  14.0333

          k = 0.2500-0.4280 0.1241 ( 11292 PWs)   bands (ev):

   -47.5418 -47.5027 -47.4749 -47.3345 -38.8341 -38.7851 -38.7403 -38.6153
   -23.8415 -23.8239 -23.7875 -23.7712 -23.7480 -23.7418 -23.7247 -23.7111
   -23.6911 -23.6414 -23.6058 -23.5770 -17.1779 -17.0878 -17.0505 -17.0107
   -16.9693 -16.9516 -16.9250 -16.8567 -16.8247 -16.7701 -16.7530 -16.7218
    -7.8765  -7.7682  -7.7158  -7.5741  -7.4455  -7.3267  -7.2862  -7.2515
    -7.0923  -7.0555  -7.0204  -7.0131  -6.8773  -6.8537  -6.7924  -6.7119
     4.6868   4.7476   4.7689   4.8450   4.9858   5.0603   5.1388   5.1442
     5.2007   5.2455   5.3073   5.3895   5.5154   5.5336   5.6349   5.7276
     5.9381   5.9840   6.1853   6.2736   6.3310   6.3880   6.5309   6.6070
     6.6539   6.8131   6.8872   7.0212   7.1026   7.1903   7.2851   7.3852
     7.4118   7.5251   7.5645   7.6261   7.6633   7.7242   7.7743   7.8567
     8.0282   8.1244   8.2140   8.2925   8.3638   8.4113   8.4533   8.5565
    11.8647  12.0041  12.1019  12.1523  12.2243  12.3354  12.4653  12.4769
    12.6452  12.6819  12.7428  12.9029  13.3257  13.4546  13.5415  13.6072
    13.7206  13.8809  14.0063

          k = 0.2500-0.4280-0.2332 ( 11283 PWs)   bands (ev):

   -47.5418 -47.5027 -47.4749 -47.3345 -38.8341 -38.7851 -38.7403 -38.6153
   -23.8416 -23.8239 -23.7875 -23.7712 -23.7479 -23.7418 -23.7246 -23.7111
   -23.6912 -23.6414 -23.6058 -23.5770 -17.1783 -17.0865 -17.0509 -17.0108
   -16.9686 -16.9522 -16.9256 -16.8575 -16.8243 -16.7700 -16.7526 -16.7218
    -7.8723  -7.7685  -7.7225  -7.6213  -7.3590  -7.3390  -7.2566  -7.1942
    -7.1472  -7.1199  -7.0669  -7.0011  -6.8695  -6.8434  -6.7662  -6.7135
     4.6709   4.7400   4.8096   4.8355   4.9836   5.0423   5.0863   5.1720
     5.2024   5.2374   5.4094   5.4702   5.5202   5.5746   5.6538   5.7270
     5.8528   6.0031   6.0817   6.1285   6.1833   6.3499   6.5451   6.6188
     6.7389   6.8001   6.9067   6.9700   7.1468   7.2323   7.3873   7.4445
     7.5152   7.5631   7.6271   7.6506   7.6692   7.7470   7.7810   7.8659
     7.8990   8.0678   8.2168   8.2591   8.3324   8.3885   8.4627   8.5249
    11.8709  12.0214  12.1056  12.1578  12.2098  12.3472  12.4083  12.4623
    12.6534  12.6852  12.7593  12.9076  13.2804  13.4515  13.4764  13.6958
    13.7867  13.8773  14.0716

          k = 0.2500-0.4280-0.1141 ( 11274 PWs)   bands (ev):

   -47.5418 -47.5027 -47.4749 -47.3345 -38.8341 -38.7851 -38.7403 -38.6153
   -23.8415 -23.8239 -23.7875 -23.7712 -23.7480 -23.7418 -23.7246 -23.7111
   -23.6912 -23.6414 -23.6058 -23.5770 -17.1787 -17.0867 -17.0512 -17.0106
   -16.9684 -16.9515 -16.9248 -16.8576 -16.8247 -16.7701 -16.7529 -16.7220
    -7.8887  -7.7672  -7.6984  -7.5513  -7.4558  -7.3441  -7.3258  -7.2220
    -7.1211  -7.0561  -7.0305  -6.9443  -6.8863  -6.8466  -6.7869  -6.7361
     4.6295   4.7200   4.8458   4.8987   4.9838   5.0343   5.0892   5.1713
     5.2171   5.2871   5.3279   5.4058   5.5082   5.5675   5.6363   5.7146
     5.8970   5.9658   6.0941   6.1735   6.3010   6.4372   6.5090   6.6103
     6.6416   6.7459   6.8994   7.0182   7.2191   7.2836   7.3279   7.4317
     7.4701   7.5403   7.5593   7.6484   7.6984   7.7212   7.7562   7.8375
     7.9730   8.0751   8.1882   8.2725   8.3678   8.4128   8.4283   8.5521
    11.8791  12.0389  12.1001  12.1443  12.2031  12.3570  12.4056  12.4967
    12.6294  12.6822  12.7721  12.9074  13.2710  13.3807  13.4826  13.7099
    13.8276  13.8702  13.9928

          k = 0.2500-0.2138 0.0063 ( 11281 PWs)   bands (ev):

   -47.5418 -47.5027 -47.4749 -47.3345 -38.8342 -38.7852 -38.7401 -38.6152
   -23.8416 -23.8243 -23.7880 -23.7699 -23.7478 -23.7420 -23.7236 -23.7105
   -23.6912 -23.6429 -23.6045 -23.5786 -17.1536 -17.0837 -17.0663 -17.0019
   -16.9706 -16.9530 -16.9273 -16.8853 -16.8298 -16.7607 -16.7413 -16.7247
    -8.1142  -7.7050  -7.6005  -7.4706  -7.4104  -7.3722  -7.2856  -7.2049
    -7.1451  -7.0936  -7.0022  -6.9747  -6.9216  -6.8646  -6.7689  -6.7114
     4.5407   4.6463   4.6903   4.7890   4.9008   5.0113   5.0468   5.1003
     5.1715   5.2516   5.3231   5.4259   5.4617   5.5420   5.5896   5.6621
     5.8996   5.9518   6.0965   6.1587   6.4213   6.5322   6.5777   6.6905
     6.7320   6.8035   6.8669   6.9417   7.0142   7.1153   7.2204   7.4099
     7.4571   7.5211   7.6440   7.6905   7.8518   7.9206   8.0161   8.0628
     8.1222   8.1863   8.2208   8.3918   8.4393   8.4738   8.5458   8.6345
    11.8786  12.0019  12.0814  12.1936  12.2682  12.3569  12.3863  12.5065
    12.5328  12.5925  12.7033  12.9106  13.2646  13.4411  13.5618  13.6768
    13.7731  13.9023  13.9621

          k = 0.2500-0.2138 0.1254 ( 11287 PWs)   bands (ev):

   -47.5418 -47.5027 -47.4749 -47.3345 -38.8342 -38.7852 -38.7401 -38.6152
   -23.8416 -23.8242 -23.7880 -23.7700 -23.7479 -23.7420 -23.7237 -23.7104
   -23.6912 -23.6429 -23.6045 -23.5786 -17.1538 -17.0838 -17.0652 -17.0024
   -16.9710 -16.9543 -16.9260 -16.8852 -16.8293 -16.7611 -16.7413 -16.7248
    -8.0799  -7.7998  -7.6062  -7.4656  -7.3725  -7.3496  -7.2386  -7.1930
    -7.1564  -7.0901  -7.0368  -7.0018  -6.9180  -6.8472  -6.7769  -6.7132
     4.5844   4.6265   4.7215   4.7847   4.8672   4.9984   5.0634   5.1034
     5.1627   5.2220   5.3723   5.4089   5.4716   5.5470   5.6200   5.6758
     5.8249   5.9368   6.0806   6.2001   6.3238   6.3826   6.5069   6.6689
     6.7528   6.8869   6.9192   7.0147   7.1007   7.1667   7.3315   7.3886
     7.4845   7.5445   7.6541   7.6989   7.8044   7.9081   7.9403   8.0476
     8.1132   8.1642   8.2544   8.3198   8.4235   8.4958   8.5216   8.6751
    11.8570  11.9835  12.0981  12.1743  12.2763  12.3449  12.3899  12.5159
    12.5481  12.6068  12.6794  12.8922  13.2696  13.4557  13.5774  13.6928
    13.7757  13.9169  13.9682

          k = 0.2500-0.2138-0.2319 ( 11285 PWs)   bands (ev):

   -47.5418 -47.5027 -47.4749 -47.3345 -38.8342 -38.7852 -38.7401 -38.6152
   -23.8417 -23.8242 -23.7880 -23.7700 -23.7478 -23.7419 -23.7238 -23.7104
   -23.6912 -23.6429 -23.6045 -23.5786 -17.1542 -17.0834 -17.0646 -17.0029
   -16.9709 -16.9540 -16.9263 -16.8860 -16.8288 -16.7610 -16.7412 -16.7249
    -8.0100  -7.9202  -7.6037  -7.4602  -7.3362  -7.2861  -7.2588  -7.1959
    -7.1405  -7.1195  -7.0533  -7.0046  -6.9088  -6.8484  -6.7899  -6.7097
     4.6015   4.6555   4.7269   4.7819   4.9013   4.9421   5.0404   5.0850
     5.1450   5.2518   5.3532   5.4162   5.4883   5.5576   5.6830   5.7330
     5.8284   5.9208   5.9828   6.0801   6.2435   6.3935   6.4857   6.6709
     6.7100   6.8846   6.9554   7.0683   7.1444   7.2639   7.3651   7.4652
     7.5393   7.6321   7.6655   7.7236   7.8138   7.8593   7.9059   7.9728
     8.0092   8.1013   8.2493   8.3339   8.4368   8.4940   8.5490   8.6538
    11.8497  11.9981  12.0973  12.1808  12.2624  12.3252  12.3960  12.4775
    12.5310  12.6224  12.6923  12.9083  13.2785  13.4530  13.5541  13.6845
    13.7772  13.9438  14.0314

          k = 0.2500-0.2138-0.1128 ( 11287 PWs)   bands (ev):

   -47.5418 -47.5027 -47.4749 -47.3345 -38.8342 -38.7852 -38.7401 -38.6152
   -23.8417 -23.8243 -23.7880 -23.7699 -23.7477 -23.7420 -23.7237 -23.7105
   -23.6912 -23.6429 -23.6045 -23.5786 -17.1539 -17.0834 -17.0656 -17.0023
   -16.9705 -16.9528 -16.9277 -16.8861 -16.8293 -16.7606 -16.7412 -16.7248
    -8.0776  -7.8181  -7.5798  -7.4650  -7.3696  -7.3232  -7.2770  -7.2126
    -7.1479  -7.1112  -7.0237  -6.9781  -6.9128  -6.8606  -6.7774  -6.7111
     4.5552   4.6729   4.7106   4.8049   4.8539   4.9946   5.0331   5.0909
     5.1657   5.2376   5.3566   5.4225   5.4822   5.5443   5.6250   5.7170
     5.8852   5.9276   6.0117   6.1740   6.2417   6.4939   6.5218   6.6047
     6.7515   6.8497   6.9378   6.9757   7.1711   7.2264   7.3231   7.3513
     7.4522   7.5738   7.6604   7.7341   7.8281   7.8752   7.9490   8.0085
     8.0994   8.1677   8.2293   8.3645   8.4470   8.5094   8.5359   8.6145
    11.8708  12.0156  12.0819  12.2083  12.2480  12.3313  12.4018  12.4638
    12.5139  12.6136  12.7128  12.9234  13.2731  13.4523  13.5254  13.6736
    13.7719  13.9344  14.0233

          k =-0.5000-0.0008-0.0151 ( 11276 PWs)   bands (ev):

   -47.5417 -47.5028 -47.4748 -47.3345 -38.8341 -38.7853 -38.7398 -38.6154
   -23.8403 -23.8231 -23.7911 -23.7699 -23.7456 -23.7352 -23.7278 -23.7105
   -23.6913 -23.6430 -23.6089 -23.5797 -17.1447 -17.0794 -17.0165 -16.9977
   -16.9741 -16.9542 -16.9313 -16.8868 -16.8288 -16.8166 -16.7635 -16.7282
    -7.7319  -7.6926  -7.5404  -7.4418  -7.4205  -7.3559  -7.2813  -7.1583
    -7.1480  -7.1351  -7.0807  -7.0095  -6.9848  -6.9380  -6.8941  -6.8639
     4.7217   4.7334   4.9404   4.9598   5.0199   5.0329   5.1046   5.1340
     5.1652   5.1686   5.1824   5.2302   5.3288   5.3413   5.4735   5.5296
     5.7030   5.7408   6.0888   6.1012   6.3514   6.3852   6.5818   6.6313
     6.9834   7.0206   7.1406   7.2198   7.2381   7.2831   7.3285   7.3897
     7.4160   7.4889   7.5591   7.5950   7.6203   7.7376   7.8215   7.8610
     8.2809   8.3581   8.4388   8.4999   8.5266   8.5820   8.6036   8.6261
    11.9761  12.0335  12.1220  12.2616  12.3372  12.4526  12.4663  12.5041
    12.5986  12.6152  12.7232  12.8849  13.2905  13.4456  13.6256  13.6424
    13.8057  13.9014  13.9722

          k =-0.5000-0.0008 0.1040 ( 11275 PWs)   bands (ev):

   -47.5417 -47.5028 -47.4748 -47.3345 -38.8341 -38.7853 -38.7398 -38.6154
   -23.8404 -23.8231 -23.7911 -23.7699 -23.7454 -23.7354 -23.7279 -23.7104
   -23.6913 -23.6430 -23.6089 -23.5797 -17.1447 -17.0793 -17.0160 -16.9984
   -16.9751 -16.9546 -16.9297 -16.8865 -16.8288 -16.8166 -16.7637 -16.7283
    -7.7266  -7.6822  -7.5605  -7.4844  -7.3991  -7.3119  -7.2887  -7.1736
    -7.1525  -7.1276  -7.0772  -7.0086  -6.9840  -6.9366  -6.8952  -6.8682
     4.7331   4.7569   4.8895   4.9220   5.0134   5.0233   5.0745   5.1139
     5.1480   5.1864   5.2163   5.2400   5.3208   5.4152   5.5173   5.5812
     5.7169   5.7994   5.9413   6.1457   6.2935   6.4734   6.6330   6.6721
     6.8352   6.9288   7.0112   7.0680   7.1718   7.2470   7.2974   7.3395
     7.4912   7.5732   7.6270   7.7040   7.7596   7.8319   7.8956   7.9646
     8.2350   8.3493   8.4332   8.4642   8.4983   8.5418   8.5575   8.6276
    11.9816  12.0565  12.1184  12.2589  12.3003  12.3973  12.4813  12.5099
    12.5888  12.6131  12.7054  12.8967  13.2446  13.4639  13.5827  13.6353
    13.8043  13.8781  14.0389

          k =-0.5000-0.0008-0.2533 ( 11266 PWs)   bands (ev):

   -47.5417 -47.5028 -47.4748 -47.3345 -38.8341 -38.7853 -38.7398 -38.6154
   -23.8404 -23.8231 -23.7911 -23.7699 -23.7453 -23.7356 -23.7280 -23.7103
   -23.6913 -23.6430 -23.6089 -23.5797 -17.1446 -17.0793 -17.0155 -16.9991
   -16.9760 -16.9550 -16.9282 -16.8862 -16.8288 -16.8166 -16.7640 -16.7284
    -7.7206  -7.6695  -7.5776  -7.5181  -7.3723  -7.3134  -7.2642  -7.1939
    -7.1567  -7.1227  -7.0712  -7.0085  -6.9858  -6.9334  -6.8953  -6.8738
     4.7548   4.7909   4.8422   4.8721   5.0078   5.0164   5.0347   5.1074
     5.1332   5.1948   5.2311   5.2587   5.3871   5.4260   5.5510   5.6253
     5.7619   5.8501   5.9276   5.9628   6.4218   6.5085   6.6456   6.7295
     6.7818   6.7989   6.8452   7.0285   7.0928   7.1926   7.2190   7.2894
     7.5709   7.6677   7.7236   7.7708   7.8570   7.9456   7.9675   8.0105
     8.2731   8.3488   8.3670   8.3861   8.4621   8.4979   8.5232   8.6295
    12.0050  12.0673  12.1157  12.2341  12.2767  12.3686  12.4872  12.5027
    12.5741  12.6115  12.6932  12.9066  13.2045  13.4836  13.5479  13.6320
    13.8185  13.8357  14.1167

          k =-0.5000 0.2134-0.0138 ( 11282 PWs)   bands (ev):

   -47.5417 -47.5028 -47.4748 -47.3345 -38.8341 -38.7852 -38.7400 -38.6154
   -23.8412 -23.8236 -23.7915 -23.7728 -23.7457 -23.7365 -23.7286 -23.7108
   -23.6914 -23.6415 -23.6058 -23.5775 -17.1791 -17.0831 -17.0559 -17.0112
   -16.9760 -16.9537 -16.9299 -16.8495 -16.8230 -16.7709 -16.7611 -16.7168
    -7.7762  -7.7130  -7.6294  -7.5813  -7.4554  -7.4293  -7.3392  -7.2605
    -7.1025  -7.0505  -6.9877  -6.9487  -6.9287  -6.8833  -6.8251  -6.7447
     4.6535   4.6945   4.8744   4.9014   4.9470   4.9790   5.0701   5.1184
     5.1557   5.1604   5.2183   5.2481   5.4019   5.4824   5.5665   5.6634
     5.8420   5.9062   6.2411   6.2771   6.3756   6.4641   6.5851   6.6237
     6.8515   6.9727   7.0180   7.0906   7.1376   7.1886   7.3139   7.3626
     7.5182   7.5631   7.6137   7.6744   7.7520   7.7868   7.8471   7.9013
     8.1866   8.2070   8.2565   8.3004   8.3197   8.3673   8.6144   8.6265
    11.9952  12.0404  12.1075  12.1864  12.2893  12.4038  12.4563  12.5292
    12.6127  12.6787  12.7456  12.9020  13.2327  13.3932  13.5184  13.6504
    13.7264  13.8081  13.8744

          k =-0.5000 0.2134 0.1053 ( 11272 PWs)   bands (ev):

   -47.5417 -47.5028 -47.4748 -47.3345 -38.8341 -38.7852 -38.7400 -38.6154
   -23.8413 -23.8236 -23.7915 -23.7728 -23.7456 -23.7366 -23.7287 -23.7108
   -23.6914 -23.6415 -23.6059 -23.5775 -17.1788 -17.0828 -17.0557 -17.0117
   -16.9765 -16.9540 -16.9301 -16.8491 -16.8230 -16.7709 -16.7608 -16.7167
    -7.7929  -7.7032  -7.6680  -7.5543  -7.4661  -7.3540  -7.3182  -7.2505
    -7.1324  -7.0813  -7.0408  -6.9975  -6.9027  -6.8696  -6.7871  -6.7368
     4.6716   4.7252   4.8334   4.8879   4.9244   4.9740   5.0496   5.1025
     5.1441   5.2228   5.2675   5.3336   5.3668   5.4689   5.5588   5.6462
     5.8414   5.9227   6.0760   6.1587   6.4461   6.4918   6.6256   6.7478
     6.7918   6.9059   7.0023   7.1437   7.1881   7.2220   7.3307   7.3756
     7.4566   7.5285   7.5943   7.6823   7.7256   7.8766   7.9134   7.9780
     8.1546   8.1695   8.2048   8.2780   8.3584   8.4076   8.5538   8.5890
    11.9817  12.0496  12.1140  12.1694  12.2901  12.3970  12.4515  12.5436
    12.6056  12.6580  12.7433  12.9086  13.2260  13.3949  13.4596  13.6396
    13.7689  13.8031  13.9527

          k =-0.5000 0.2134-0.2521 ( 11282 PWs)   bands (ev):

   -47.5417 -47.5028 -47.4748 -47.3345 -38.8341 -38.7852 -38.7400 -38.6154
   -23.8413 -23.8235 -23.7915 -23.7728 -23.7454 -23.7367 -23.7287 -23.7107
   -23.6914 -23.6415 -23.6059 -23.5775 -17.1788 -17.0827 -17.0558 -17.0115
   -16.9770 -16.9547 -16.9291 -16.8487 -16.8229 -16.7709 -16.7611 -16.7168
    -7.8096  -7.7106  -7.6594  -7.5719  -7.3933  -7.3568  -7.2841  -7.2395
    -7.1617  -7.1192  -7.0768  -7.0380  -6.8823  -6.8468  -6.7746  -6.7309
     4.7192   4.7459   4.8051   4.8204   4.9049   4.9838   5.0496   5.0675
     5.1953   5.2650   5.2986   5.3584   5.4267   5.4814   5.5230   5.5581
     5.8545   5.9185   6.0310   6.0497   6.4675   6.5566   6.6430   6.7010
     6.8196   6.8576   7.0225   7.0961   7.1876   7.3185   7.3634   7.4014
     7.4387   7.5242   7.5497   7.6368   7.8308   7.8925   7.9822   8.0430
     8.0768   8.1670   8.2032   8.2594   8.3801   8.4383   8.4805   8.5221
    12.0012  12.0341  12.1145  12.1614  12.2677  12.3752  12.4482  12.5377
    12.6313  12.6553  12.7305  12.9027  13.2315  13.4002  13.4923  13.6197
    13.7597  13.7905  13.9367

          k =-0.5000 0.2134-0.1330 ( 11287 PWs)   bands (ev):

   -47.5417 -47.5028 -47.4748 -47.3345 -38.8341 -38.7852 -38.7400 -38.6154
   -23.8413 -23.8236 -23.7915 -23.7728 -23.7456 -23.7366 -23.7287 -23.7107
   -23.6914 -23.6415 -23.6059 -23.5775 -17.1792 -17.0830 -17.0559 -17.0111
   -16.9765 -16.9544 -16.9289 -16.8491 -16.8230 -16.7710 -16.7613 -16.7169
    -7.7972  -7.7064  -7.6550  -7.5474  -7.4660  -7.3624  -7.3377  -7.2468
    -7.1197  -7.0850  -7.0532  -6.9887  -6.8892  -6.8560  -6.8063  -6.7383
     4.6774   4.7164   4.8411   4.8880   4.9217   4.9556   5.0468   5.0906
     5.1592   5.2411   5.2732   5.3262   5.3978   5.4639   5.5431   5.6246
     5.8446   5.9523   6.0475   6.1733   6.4395   6.4998   6.6670   6.7124
     6.7919   6.8960   6.9834   7.0996   7.1286   7.2466   7.3684   7.4179
     7.5040   7.5338   7.5848   7.6606   7.7316   7.8477   7.9396   7.9840
     8.1296   8.1647   8.2416   8.2763   8.3444   8.4001   8.5425   8.5991
    12.0024  12.0394  12.1093  12.1769  12.2674  12.3730  12.4560  12.5270
    12.6351  12.6812  12.7293  12.8968  13.2375  13.4347  13.5170  13.6023
    13.7175  13.8218  13.9063

          k =-0.5000-0.4292-0.0176 ( 11284 PWs)   bands (ev):

   -47.5417 -47.5028 -47.4748 -47.3345 -38.8340 -38.7850 -38.7401 -38.6153
   -23.8421 -23.8240 -23.7919 -23.7756 -23.7459 -23.7379 -23.7292 -23.7110
   -23.6915 -23.6401 -23.6029 -23.5753 -17.2090 -17.0960 -17.0782 -17.0145
   -16.9732 -16.9531 -16.9320 -16.8305 -16.8175 -16.7622 -16.7297 -16.7027
    -7.8186  -7.7554  -7.6940  -7.6570  -7.4885  -7.4785  -7.3762  -7.3132
    -7.0810  -7.0320  -6.9481  -6.8929  -6.8742  -6.8001  -6.7667  -6.6575
     4.5988   4.6466   4.7989   4.8416   4.8731   4.9401   4.9716   5.0161
     5.2346   5.2566   5.2906   5.3011   5.3802   5.4413   6.0287   6.0615
     6.0793   6.1984   6.2721   6.3724   6.4029   6.4473   6.4965   6.6055
     6.7395   6.7809   6.7870   6.8425   6.9509   7.1053   7.3203   7.4322
     7.5172   7.5676   7.6427   7.7193   7.7567   7.8613   7.9286   7.9808
     8.0580   8.1169   8.1537   8.2002   8.3106   8.3519   8.4744   8.4771
    11.9579  12.0382  12.0714  12.2202  12.2436  12.3706  12.4130  12.5397
    12.6367  12.6807  12.8018  12.8797  13.1651  13.2808  13.4936  13.5043
    13.6474  13.7328  13.8381

          k =-0.5000-0.4292 0.1015 ( 11282 PWs)   bands (ev):

   -47.5417 -47.5028 -47.4748 -47.3345 -38.8340 -38.7850 -38.7401 -38.6153
   -23.8422 -23.8240 -23.7919 -23.7756 -23.7457 -23.7381 -23.7292 -23.7110
   -23.6915 -23.6402 -23.6029 -23.5753 -17.2088 -17.0957 -17.0783 -17.0144
   -16.9729 -16.9538 -16.9325 -16.8303 -16.8174 -16.7618 -16.7297 -16.7026
    -7.8572  -7.7504  -7.7153  -7.5976  -7.5322  -7.3989  -7.3643  -7.2728
    -7.1141  -7.0673  -7.0230  -6.9472  -6.8477  -6.7726  -6.7265  -6.6468
     4.6241   4.6599   4.7939   4.8353   4.8596   4.9096   4.9954   5.1049
     5.1702   5.2150   5.2619   5.3583   5.4528   5.5024   5.9142   5.9608
     5.9908   6.0543   6.1428   6.2030   6.3974   6.5365   6.6386   6.7783
     6.8350   6.8556   6.8955   6.9795   6.9941   7.1279   7.3497   7.4027
     7.4940   7.5585   7.6049   7.6588   7.7320   7.7709   7.8887   7.9615
     8.0651   8.1063   8.1756   8.2496   8.3267   8.3602   8.4187   8.4454
    11.9433  12.0098  12.0664  12.2131  12.2680  12.3671  12.4114  12.5663
    12.6441  12.6848  12.7942  12.8608  13.1783  13.3589  13.4266  13.5619
    13.6687  13.7370  13.8775

          k =-0.5000-0.4292-0.2558 ( 11294 PWs)   bands (ev):

   -47.5417 -47.5028 -47.4748 -47.3345 -38.8340 -38.7850 -38.7401 -38.6153
   -23.8422 -23.8240 -23.7919 -23.7755 -23.7455 -23.7382 -23.7291 -23.7110
   -23.6916 -23.6402 -23.6029 -23.5753 -17.2086 -17.0955 -17.0784 -17.0143
   -16.9726 -16.9546 -16.9331 -16.8302 -16.8173 -16.7615 -16.7297 -16.7025
    -7.8821  -7.7661  -7.7021  -7.6095  -7.4639  -7.4228  -7.2722  -7.2317
    -7.1776  -7.1123  -7.0813  -6.9888  -6.8329  -6.7555  -6.6986  -6.6367
     4.6738   4.6903   4.7341   4.7608   4.8822   4.9953   5.0464   5.1004
     5.1766   5.1873   5.2391   5.2636   5.6188   5.7008   5.7232   5.7743
     5.9042   5.9548   6.0495   6.1306   6.4550   6.6089   6.6294   6.8160
     6.8794   6.9927   7.0546   7.0692   7.1787   7.2242   7.2846   7.3358
     7.4328   7.4970   7.5593   7.6500   7.7040   7.7292   7.8277   7.9026
     8.0836   8.1770   8.2262   8.2488   8.2557   8.3647   8.3905   8.4184
    11.9301  11.9842  12.0634  12.2065  12.2732  12.3813  12.4109  12.5869
    12.6533  12.6904  12.7909  12.8383  13.1919  13.3698  13.5027  13.5586
    13.6880  13.7873  13.8020

     the Fermi energy is    10.3821 ev

!    total energy              =   -1543.63231560 Ry
     estimated scf accuracy    <          5.2E-09 Ry
     smearing contrib. (-TS)   =      -0.00000000 Ry
     internal energy E=F+TS    =   -1543.63231560 Ry

     The total energy is F=E-TS. E is the sum of the following terms:
     one-electron contribution =    -403.12691109 Ry
     hartree contribution      =     302.16516960 Ry
     xc contribution           =    -262.44301899 Ry
     ewald contribution        =   -1027.99550585 Ry
     one-center paw contrib.   =    -152.23204928 Ry

     convergence has been achieved in  18 iterations

     negative rho (up, down):  2.663E-01 0.000E+00

     Forces acting on atoms (cartesian axes, Ry/au):

     atom    1 type  1   force =    -0.00016544   -0.00034463    0.00303517
     atom    2 type  1   force =     0.00000269   -0.00026659    0.00065029
     atom    3 type  1   force =     0.00056799   -0.00555425   -0.00244854
     atom    4 type  1   force =    -0.00041540   -0.00305272   -0.00223332
     atom    5 type  2   force =    -0.00097552   -0.00321829    0.00024077
     atom    6 type  2   force =    -0.00086361    0.00180198    0.00115022
     atom    7 type  2   force =     0.00050428   -0.00096753    0.00058944
     atom    8 type  2   force =     0.00018360   -0.00371253   -0.00023241
     atom    9 type  3   force =    -0.00575793    0.00148288   -0.00683037
     atom   10 type  3   force =    -0.00188230    0.00450119   -0.00605012
     atom   11 type  3   force =    -0.00142585   -0.00531313    0.00020493
     atom   12 type  3   force =    -0.00105863    0.00075838   -0.00030345
     atom   13 type  3   force =    -0.00406020   -0.00669653    0.00346541
     atom   14 type  3   force =    -0.00396524   -0.00242099    0.00847873
     atom   15 type  3   force =     0.00408091    0.00437826   -0.00437296
     atom   16 type  3   force =    -0.00595773    0.00715096    0.00306019
     atom   17 type  3   force =     0.00234034   -0.00024072   -0.00694779
     atom   18 type  3   force =     0.00755097   -0.00623151   -0.00347330
     atom   19 type  3   force =     0.00110532    0.00268603   -0.00052068
     atom   20 type  3   force =    -0.00077627    0.01085794    0.00066945
     atom   21 type  3   force =     0.00525142    0.00213020    0.00395103
     atom   22 type  3   force =    -0.00508206   -0.00271353   -0.00473585
     atom   23 type  3   force =     0.00657504   -0.00031690    0.00522595
     atom   24 type  3   force =     0.00422361    0.00530203    0.00742723

     Total force =     0.033916     Total SCF correction =     0.000113


     Computing stress (Cartesian axis) and pressure


     negative rho (up, down):  2.663E-01 0.000E+00
          total   stress  (Ry/bohr**3)                   (kbar)     P=      -33.78
  -0.00023465   0.00000030   0.00001273          -34.52        0.04        1.87
   0.00000030  -0.00020224  -0.00000143            0.04      -29.75       -0.21
   0.00001273  -0.00000143  -0.00025194            1.87       -0.21      -37.06


     BFGS Geometry Optimization
     Energy error            =      0.0E+00
     Gradient error          =      1.1E-02
     Cell gradient error     =      2.5E-04


     number of scf cycles    =   1
     number of bfgs steps    =   0

     enthalpy new            =   -1543.6323156014 Ry

     new trust radius        =       0.0548288155 bohr
     new conv_thr            =       0.0000000100 Ry

     new unit-cell volume =   1857.22215 a.u.^3 (   275.21193 Ang^3 )
     density =      4.90144 g/cm^3

CELL_PARAMETERS (angstrom)
   4.824549451   0.000036635   0.001544711
  -0.009178823   5.635790871  -0.000205638
  -0.302427541  -0.059916176  10.121655546

ATOMIC_POSITIONS (angstrom)
Zr           -0.2510428854        3.8902114345        8.8440302536
Zr            4.7475508867        1.6834528036        1.1957631197
Zr            4.6966215254        3.8875433698        3.8131724923
Zr            2.2539075215        1.0321787719        3.8743286880
Ti            4.6280468124        1.6991676508        6.3822581456
Ti            2.1470297967        0.9548972678        8.8032027658
Ti            2.3736768803        4.6305567503        1.2528525712
Ti            2.2305179290        4.5232612351        6.3476472436
O             1.1105202128        3.4694451478        0.4448706546
O             1.0315807645        3.3865474645        5.5218730855
O             0.9246976480        2.2307641996        2.9241530967
O             0.8782840369        2.0821066566        7.9895794388
O             1.2350281970        4.9603330449        7.9354569894
O             1.2047373274        5.0509598133        2.7813015614
O             1.0166918860        0.5489521024        5.5104632771
O             1.3658251346        0.6045617278        0.2410296320
O             3.2327240457        4.9599805674        4.7671488415
O             3.2179532911        5.0365294605        9.8376372582
O             3.3727134393        0.6106278561        7.2331997534
O             3.4295442941        0.5249362191        2.2185601058
O             3.5330103962        3.4164094447        2.0891381742
O             3.6942011558        2.1554821323        4.7556756141
O             3.3819337612        2.1526974146        9.6027759815
O             3.5241121682        3.4193530973        7.1113715144



     Writing output data file ./out/O4TiZr.save/
     NEW-OLD atomic charge density approx. for the potential

     Check: negative core charge=   -0.000004

     negative rho (up, down):  2.619E-01 0.000E+00
     extrapolated charge  188.72499, renormalised to  192.00000

     total cpu time spent up to now is     8018.6 secs

     Self-consistent Calculation

     iteration #  1     ecut=    50.00 Ry     beta= 0.30
     Davidson diagonalization with overlap
     c_bands:  1 eigenvalues not converged
     c_bands:  2 eigenvalues not converged
     c_bands:  3 eigenvalues not converged
     c_bands:  2 eigenvalues not converged
     c_bands:  2 eigenvalues not converged
     c_bands:  3 eigenvalues not converged
     c_bands:  2 eigenvalues not converged
     c_bands:  3 eigenvalues not converged
     c_bands:  2 eigenvalues not converged
     c_bands:  1 eigenvalues not converged
     c_bands:  2 eigenvalues not converged
     c_bands:  1 eigenvalues not converged
     c_bands:  1 eigenvalues not converged
     c_bands:  1 eigenvalues not converged
     c_bands:  2 eigenvalues not converged
     c_bands:  3 eigenvalues not converged
     ethr =  1.00E-06,  avg # of iterations = 19.7

     negative rho (up, down):  2.666E-01 0.000E+00

     total cpu time spent up to now is     9361.6 secs

     total energy              =   -1543.43932227 Ry
     estimated scf accuracy    <       0.21079370 Ry

     iteration #  2     ecut=    50.00 Ry     beta= 0.30
     Davidson diagonalization with overlap
     ethr =  1.10E-04,  avg # of iterations =  8.8

     negative rho (up, down):  2.666E-01 0.000E+00

     total cpu time spent up to now is    10073.9 secs

     total energy              =   -1543.63357850 Ry
     estimated scf accuracy    <       0.33954902 Ry

     iteration #  3     ecut=    50.00 Ry     beta= 0.30
     Davidson diagonalization with overlap
     ethr =  1.10E-04,  avg # of iterations =  2.4

     negative rho (up, down):  2.665E-01 0.000E+00

     total cpu time spent up to now is    10398.7 secs

     total energy              =   -1543.63133997 Ry
     estimated scf accuracy    <       0.08314427 Ry

     iteration #  4     ecut=    50.00 Ry     beta= 0.30
     Davidson diagonalization with overlap
     ethr =  4.33E-05,  avg # of iterations =  8.5

     negative rho (up, down):  2.664E-01 0.000E+00

     total cpu time spent up to now is    10896.8 secs

     total energy              =   -1543.63899442 Ry
     estimated scf accuracy    <       0.01104974 Ry

     iteration #  5     ecut=    50.00 Ry     beta= 0.30
     Davidson diagonalization with overlap
     ethr =  5.76E-06,  avg # of iterations =  2.5

     negative rho (up, down):  2.664E-01 0.000E+00

     total cpu time spent up to now is    11232.7 secs

     total energy              =   -1543.63710952 Ry
     estimated scf accuracy    <       0.00973780 Ry

     iteration #  6     ecut=    50.00 Ry     beta= 0.30
     Davidson diagonalization with overlap
     ethr =  5.07E-06,  avg # of iterations =  1.2

     negative rho (up, down):  2.664E-01 0.000E+00

     total cpu time spent up to now is    11520.2 secs

     total energy              =   -1543.63656008 Ry
     estimated scf accuracy    <       0.00414334 Ry

     iteration #  7     ecut=    50.00 Ry     beta= 0.30
     Davidson diagonalization with overlap
     c_bands:  1 eigenvalues not converged
     ethr =  2.16E-06,  avg # of iterations = 12.4

     negative rho (up, down):  2.664E-01 0.000E+00

     total cpu time spent up to now is    11959.6 secs

     total energy              =   -1543.63646514 Ry
     estimated scf accuracy    <       0.00107471 Ry

     iteration #  8     ecut=    50.00 Ry     beta= 0.30
     Davidson diagonalization with overlap
     ethr =  5.60E-07,  avg # of iterations =  1.9

     negative rho (up, down):  2.664E-01 0.000E+00

     total cpu time spent up to now is    12276.3 secs

     total energy              =   -1543.63639834 Ry
     estimated scf accuracy    <       0.00026332 Ry

     iteration #  9     ecut=    50.00 Ry     beta= 0.30
     Davidson diagonalization with overlap
     ethr =  1.37E-07,  avg # of iterations =  4.3

     negative rho (up, down):  2.664E-01 0.000E+00

     total cpu time spent up to now is    12700.1 secs

     total energy              =   -1543.63647281 Ry
     estimated scf accuracy    <       0.00000508 Ry

     iteration # 10     ecut=    50.00 Ry     beta= 0.30
     Davidson diagonalization with overlap
     ethr =  2.65E-09,  avg # of iterations =  4.1

     negative rho (up, down):  2.664E-01 0.000E+00

     total cpu time spent up to now is    13243.3 secs

     total energy              =   -1543.63647444 Ry
     estimated scf accuracy    <       0.00000276 Ry

     iteration # 11     ecut=    50.00 Ry     beta= 0.30
     Davidson diagonalization with overlap
     ethr =  1.44E-09,  avg # of iterations =  2.0

     negative rho (up, down):  2.664E-01 0.000E+00

     total cpu time spent up to now is    13626.4 secs

     total energy              =   -1543.63647460 Ry
     estimated scf accuracy    <       0.00000092 Ry

     iteration # 12     ecut=    50.00 Ry     beta= 0.30
     Davidson diagonalization with overlap
     ethr =  4.79E-10,  avg # of iterations =  2.1

     negative rho (up, down):  2.664E-01 0.000E+00

     total cpu time spent up to now is    13968.4 secs

     total energy              =   -1543.63647463 Ry
     estimated scf accuracy    <       0.00000012 Ry

     iteration # 13     ecut=    50.00 Ry     beta= 0.30
     Davidson diagonalization with overlap
     ethr =  6.16E-11,  avg # of iterations =  4.0

     negative rho (up, down):  2.664E-01 0.000E+00

     total cpu time spent up to now is    14431.1 secs

     total energy              =   -1543.63647467 Ry
     estimated scf accuracy    <       0.00000008 Ry

     iteration # 14     ecut=    50.00 Ry     beta= 0.30
     Davidson diagonalization with overlap
     ethr =  4.23E-11,  avg # of iterations =  2.0

     negative rho (up, down):  2.664E-01 0.000E+00

     total cpu time spent up to now is    14800.0 secs

     End of self-consistent calculation

          k = 0.0000 0.0000 0.0000 ( 11265 PWs)   bands (ev):

   -47.2513 -47.1937 -47.1930 -47.0290 -38.4726 -38.4162 -38.3818 -38.2534
   -23.5662 -23.5449 -23.5008 -23.4764 -23.4724 -23.4654 -23.4399 -23.4245
   -23.4176 -23.3488 -23.3083 -23.2831 -16.8892 -16.7803 -16.7578 -16.6994
   -16.6351 -16.6219 -16.5720 -16.5267 -16.4954 -16.4151 -16.3958 -16.3800
    -8.2548  -7.5648  -7.4639  -7.3563  -7.2568  -7.1286  -7.0166  -6.9621
    -6.8954  -6.8354  -6.7803  -6.6885  -6.5775  -6.5301  -6.4237  -6.3357
     4.4186   4.5299   4.5778   4.7234   4.9380   5.0031   5.2066   5.2670
     5.3087   5.3992   5.4722   5.5068   5.6961   5.7204   5.8754   5.9486
     6.0993   6.1989   6.3140   6.4959   6.5982   6.7262   6.8553   6.9138
     6.9499   6.9932   7.1464   7.1916   7.2618   7.3721   7.4797   7.5311
     7.6329   7.7364   7.8346   7.8722   8.1888   8.2413   8.3009   8.5107
     8.6003   8.6816   8.7088   8.7741   8.8520   8.9174   8.9966   9.0684
    12.0632  12.1830  12.2545  12.3696  12.4607  12.5599  12.6294  12.6699
    12.7517  12.8274  12.9991  13.3544  13.5778  13.8152  13.9319  14.1040
    14.2444  14.2724  14.3287

          k =-0.0000 0.0000 0.1199 ( 11247 PWs)   bands (ev):

   -47.2513 -47.1937 -47.1930 -47.0290 -38.4726 -38.4162 -38.3818 -38.2534
   -23.5661 -23.5449 -23.5008 -23.4768 -23.4723 -23.4653 -23.4399 -23.4245
   -23.4175 -23.3488 -23.3083 -23.2831 -16.8899 -16.7803 -16.7571 -16.6987
   -16.6350 -16.6217 -16.5720 -16.5269 -16.4952 -16.4158 -16.3958 -16.3800
    -8.1968  -7.7845  -7.3727  -7.2886  -7.2488  -7.1044  -7.0860  -6.9625
    -6.8740  -6.7981  -6.7313  -6.6649  -6.5968  -6.5511  -6.4531  -6.3573
     4.4766   4.5884   4.6421   4.7856   4.9511   4.9965   5.0301   5.1170
     5.2003   5.3914   5.4946   5.5452   5.6863   5.7099   5.8233   6.0060
     6.0770   6.1778   6.3614   6.4236   6.6199   6.7471   6.8586   6.9777
     7.0301   7.0870   7.1636   7.2744   7.3030   7.3823   7.4323   7.5156
     7.6092   7.7766   7.8872   7.9481   8.1043   8.2125   8.3249   8.4105
     8.4840   8.6203   8.7358   8.7914   8.8276   8.9232   8.9871   9.0894
    12.0573  12.1928  12.2698  12.3813  12.4573  12.5531  12.6230  12.6739
    12.7576  12.8242  12.9761  13.3548  13.5410  13.8458  13.9474  14.0788
    14.1844  14.3116  14.4090

          k = 0.0001-0.0000-0.2397 ( 11252 PWs)   bands (ev):

   -47.2513 -47.1937 -47.1930 -47.0290 -38.4726 -38.4162 -38.3818 -38.2534
   -23.5660 -23.5449 -23.5008 -23.4771 -23.4722 -23.4653 -23.4399 -23.4245
   -23.4174 -23.3488 -23.3083 -23.2831 -16.8907 -16.7804 -16.7565 -16.6981
   -16.6348 -16.6215 -16.5721 -16.5272 -16.4951 -16.4166 -16.3959 -16.3800
    -8.0569  -8.0011  -7.3372  -7.2718  -7.2341  -7.1301  -7.0753  -6.9891
    -6.8123  -6.7491  -6.6835  -6.6603  -6.6076  -6.5891  -6.4965  -6.3774
     4.5914   4.6589   4.7094   4.7881   4.9556   5.0006   5.0115   5.0346
     5.0789   5.1453   5.5038   5.5854   5.6181   5.7327   5.8266   5.9257
     6.1621   6.2937   6.3918   6.4350   6.5968   6.7096   6.8567   6.9947
     7.0106   7.0580   7.1432   7.1992   7.4569   7.5049   7.5888   7.6719
     7.7113   7.7474   7.8434   7.9164   8.0973   8.1377   8.1803   8.2831
     8.5029   8.5669   8.6997   8.7921   8.8569   8.9275   8.9726   9.1031
    12.0594  12.1946  12.2885  12.3907  12.4457  12.5651  12.6030  12.6937
    12.7470  12.8272  12.9505  13.3549  13.5091  13.8540  13.9654  14.0849
    14.1425  14.3939  14.4132

          k =-0.0000 0.2153 0.0013 ( 11296 PWs)   bands (ev):

   -47.2513 -47.1937 -47.1930 -47.0291 -38.4722 -38.4160 -38.3821 -38.2536
   -23.5656 -23.5444 -23.4999 -23.4758 -23.4705 -23.4647 -23.4399 -23.4234
   -23.4174 -23.3501 -23.3114 -23.2852 -16.8644 -16.7780 -16.7240 -16.6913
   -16.6369 -16.6214 -16.5795 -16.5485 -16.4928 -16.4397 -16.4141 -16.3947
    -8.0973  -7.4496  -7.3864  -7.3050  -7.2262  -7.1607  -7.1056  -6.9426
    -6.9198  -6.8432  -6.7658  -6.7189  -6.6528  -6.6310  -6.4854  -6.4361
     4.5670   4.6924   4.8075   4.9260   5.0503   5.1871   5.2417   5.2768
     5.3202   5.4160   5.4659   5.6604   5.8222   5.9337   5.9877   6.0369
     6.0986   6.1596   6.2176   6.3237   6.5055   6.5847   6.6532   6.6999
     6.8943   6.9724   7.0452   7.2121   7.2713   7.3452   7.4072   7.5355
     7.6993   7.7448   7.8059   7.9244   7.9745   8.0786   8.1116   8.2044
     8.2600   8.5283   8.6210   8.6630   8.7997   8.8906   8.9141   9.0028
    12.0710  12.2802  12.3249  12.4175  12.4798  12.6065  12.6415  12.7279
    12.7898  12.9223  13.0196  13.3608  13.6273  13.8340  13.9842  14.0520
    14.1989  14.3199  14.4011

          k =-0.0000 0.2153 0.1211 ( 11292 PWs)   bands (ev):

   -47.2513 -47.1937 -47.1930 -47.0291 -38.4722 -38.4160 -38.3821 -38.2536
   -23.5657 -23.5444 -23.4999 -23.4760 -23.4703 -23.4645 -23.4400 -23.4235
   -23.4174 -23.3501 -23.3114 -23.2852 -16.8647 -16.7765 -16.7242 -16.6916
   -16.6369 -16.6213 -16.5800 -16.5502 -16.4919 -16.4398 -16.4136 -16.3946
    -8.0436  -7.6688  -7.3116  -7.2758  -7.1936  -7.1371  -7.0723  -6.9641
    -6.8923  -6.8456  -6.7541  -6.7013  -6.6714  -6.6319  -6.5120  -6.4510
     4.6189   4.7529   4.7898   4.9790   5.0478   5.1276   5.1738   5.2622
     5.3102   5.3653   5.4979   5.6600   5.6953   5.9328   5.9984   6.0685
     6.1443   6.2041   6.2590   6.3040   6.3503   6.4805   6.6455   6.8498
     6.9417   7.0151   7.1910   7.2140   7.3022   7.3985   7.4478   7.5049
     7.6400   7.6768   7.7478   7.8238   7.9523   8.1099   8.2042   8.2244
     8.3462   8.4804   8.5521   8.6660   8.7865   8.8694   8.9248   9.0024
    12.0665  12.2787  12.3342  12.3808  12.4996  12.6150  12.6474  12.7023
    12.8050  12.9031  13.0173  13.3629  13.6135  13.8748  13.9786  14.0198
    14.1797  14.3424  14.4508

          k = 0.0001 0.2153-0.2385 ( 11299 PWs)   bands (ev):

   -47.2513 -47.1937 -47.1930 -47.0291 -38.4722 -38.4160 -38.3821 -38.2536
   -23.5656 -23.5444 -23.4999 -23.4764 -23.4701 -23.4645 -23.4400 -23.4235
   -23.4173 -23.3501 -23.3114 -23.2852 -16.8658 -16.7754 -16.7239 -16.6908
   -16.6371 -16.6217 -16.5800 -16.5506 -16.4911 -16.4400 -16.4140 -16.3948
    -7.9289  -7.8518  -7.3208  -7.2475  -7.1618  -7.1395  -7.0433  -7.0023
    -6.8466  -6.8055  -6.7364  -6.7224  -6.6667  -6.6262  -6.5627  -6.4645
     4.7152   4.7262   4.9090   4.9770   5.0174   5.0759   5.1138   5.1453
     5.3174   5.3769   5.5555   5.6429   5.6983   5.7761   5.9797   6.0599
     6.2089   6.2536   6.2788   6.3202   6.3799   6.4028   6.6967   6.7580
     7.0127   7.1521   7.1962   7.2562   7.3277   7.3987   7.4406   7.4993
     7.5438   7.5975   7.7862   7.8826   7.9680   8.0211   8.2608   8.3249
     8.3715   8.4399   8.4987   8.5649   8.8329   8.8637   8.9091   9.0060
    12.0593  12.2606  12.3368  12.3842  12.5024  12.6106  12.6436  12.7260
    12.7961  12.8914  13.0224  13.3517  13.5871  13.8870  13.9944  14.0874
    14.1401  14.3245  14.4457

          k = 0.0000 0.2153-0.1186 ( 11307 PWs)   bands (ev):

   -47.2513 -47.1937 -47.1930 -47.0291 -38.4722 -38.4160 -38.3821 -38.2536
   -23.5656 -23.5444 -23.4998 -23.4762 -23.4703 -23.4647 -23.4399 -23.4235
   -23.4173 -23.3501 -23.3114 -23.2852 -16.8655 -16.7769 -16.7237 -16.6905
   -16.6371 -16.6218 -16.5795 -16.5489 -16.4920 -16.4400 -16.4145 -16.3949
    -8.0471  -7.6586  -7.3236  -7.2544  -7.1938  -7.1480  -7.0769  -6.9830
    -6.9037  -6.8216  -6.7580  -6.7033  -6.6548  -6.6232  -6.5250  -6.4514
     4.6135   4.7549   4.7979   4.9750   5.0546   5.1085   5.1647   5.2416
     5.3415   5.3860   5.4895   5.6448   5.7077   5.9176   6.0189   6.0521
     6.1547   6.2012   6.2768   6.3123   6.3683   6.4554   6.6838   6.8354
     6.9358   7.0104   7.1134   7.2076   7.3175   7.3892   7.4400   7.5413
     7.6350   7.6850   7.7597   7.8379   7.9284   8.1196   8.1960   8.2341
     8.3572   8.5025   8.5522   8.6275   8.7809   8.8927   8.9160   9.0050
    12.0620  12.2660  12.3283  12.4170  12.4778  12.6056  12.6478  12.7357
    12.7777  12.9285  13.0194  13.3484  13.5980  13.8664  14.0018  14.0819
    14.1765  14.2905  14.3993

          k = 0.0000-0.4306-0.0025 ( 11324 PWs)   bands (ev):

   -47.2513 -47.1937 -47.1929 -47.0291 -38.4719 -38.4158 -38.3824 -38.2539
   -23.5651 -23.5440 -23.4989 -23.4754 -23.4687 -23.4634 -23.4399 -23.4223
   -23.4171 -23.3516 -23.3146 -23.2873 -16.8398 -16.7728 -16.6728 -16.6668
   -16.6447 -16.6252 -16.5956 -16.5678 -16.5145 -16.4812 -16.4166 -16.4038
    -7.7556  -7.6379  -7.2896  -7.2369  -7.1520  -7.1125  -7.0742  -6.9832
    -6.9516  -6.8844  -6.8120  -6.7647  -6.6936  -6.6587  -6.6166  -6.5577
     4.8627   4.9578   5.0555   5.1162   5.2173   5.2455   5.3309   5.3873
     5.4553   5.5607   5.6051   5.6209   5.6802   5.7314   5.7944   5.8441
     6.1061   6.2322   6.2991   6.3445   6.5027   6.5274   6.6503   6.7021
     6.9620   7.0319   7.0680   7.1518   7.2305   7.2661   7.4129   7.4481
     7.4806   7.5546   7.7282   7.7752   7.8087   7.8648   7.9844   8.0498
     8.1276   8.2562   8.5097   8.6156   8.6950   8.7872   8.9077   8.9182
    12.0870  12.3515  12.4487  12.4557  12.5291  12.6062  12.6831  12.7991
    12.8662  12.9894  13.0278  13.3826  13.5955  13.8481  14.0371  14.0597
    14.3045  14.4162  14.4699

          k =-0.0000-0.4305 0.1173 ( 11299 PWs)   bands (ev):

   -47.2513 -47.1937 -47.1929 -47.0291 -38.4719 -38.4158 -38.3824 -38.2539
   -23.5651 -23.5440 -23.4989 -23.4756 -23.4684 -23.4633 -23.4400 -23.4223
   -23.4171 -23.3516 -23.3146 -23.2873 -16.8402 -16.7710 -16.6730 -16.6679
   -16.6437 -16.6257 -16.5961 -16.5696 -16.5136 -16.4810 -16.4162 -16.4036
    -7.7244  -7.6062  -7.4368  -7.3128  -7.0742  -7.0671  -7.0128  -6.9709
    -6.9385  -6.8840  -6.8097  -6.7777  -6.6984  -6.6660  -6.6341  -6.5676
     4.9066   4.9800   5.0334   5.1050   5.1452   5.1807   5.2728   5.3280
     5.5421   5.5826   5.6516   5.6826   5.7314   5.7876   5.8090   5.8902
     6.1380   6.2329   6.3102   6.3816   6.4866   6.5229   6.6352   6.6769
[...]
     5.2851   5.3683   5.4858   5.5382   5.6099   5.6712   5.7537   5.8355
     6.0275   6.0680   6.1655   6.3083   6.3860   6.6407   6.6698   6.7530
     6.8871   6.9727   7.0790   7.1149   7.3188   7.3781   7.4945   7.5158
     7.6047   7.7190   7.8252   7.8856   7.9907   8.0431   8.0964   8.1642
     8.2528   8.3117   8.3793   8.5260   8.6015   8.6572   8.6977   8.7812
    12.0777  12.2187  12.3055  12.4040  12.4543  12.5426  12.6169  12.6618
    12.7207  12.8163  12.9237  13.1451  13.5262  13.7221  13.7862  13.9623
    14.0420  14.2174  14.2912

          k =-0.5032-0.0015-0.0141 ( 11276 PWs)   bands (ev):

   -47.3373 -47.2845 -47.2801 -47.1541 -38.5053 -38.4741 -38.4368 -38.3196
   -23.6455 -23.6272 -23.5948 -23.5608 -23.5556 -23.5429 -23.5239 -23.5127
   -23.4981 -23.4650 -23.4311 -23.4060 -16.9015 -16.8215 -16.7516 -16.7219
   -16.6969 -16.6832 -16.6659 -16.6135 -16.5626 -16.5411 -16.4915 -16.4613
    -7.5741  -7.5494  -7.3832  -7.2940  -7.2852  -7.2143  -7.1432  -7.0087
    -6.9918  -6.9674  -6.9212  -6.8490  -6.8159  -6.7696  -6.7141  -6.6878
     4.8495   4.8552   5.0673   5.0859   5.1402   5.1547   5.2281   5.2398
     5.2909   5.3017   5.3088   5.3598   5.4480   5.4772   5.6120   5.6639
     5.8401   5.8789   6.2278   6.2553   6.4843   6.5247   6.7226   6.7578
     7.1332   7.1913   7.2997   7.3623   7.3783   7.4489   7.4707   7.5432
     7.5860   7.6389   7.7322   7.7590   7.7751   7.8755   7.9774   8.0006
     8.4351   8.5179   8.5807   8.6401   8.6820   8.7327   8.7418   8.7848
    12.1933  12.2456  12.3414  12.4658  12.5520  12.6537  12.6696  12.7234
    12.7987  12.8295  12.9155  13.0895  13.5456  13.7238  13.8750  13.9085
    14.1008  14.2039  14.2363

          k =-0.5034-0.0012 0.1054 ( 11275 PWs)   bands (ev):

   -47.3373 -47.2845 -47.2801 -47.1541 -38.5053 -38.4741 -38.4368 -38.3196
   -23.6455 -23.6271 -23.5948 -23.5609 -23.5555 -23.5430 -23.5238 -23.5127
   -23.4981 -23.4650 -23.4311 -23.4060 -16.9015 -16.8214 -16.7516 -16.7223
   -16.6986 -16.6833 -16.6641 -16.6129 -16.5625 -16.5412 -16.4917 -16.4614
    -7.5691  -7.5398  -7.3997  -7.3405  -7.2657  -7.1777  -7.1410  -7.0217
    -6.9935  -6.9645  -6.9172  -6.8457  -6.8186  -6.7665  -6.7176  -6.6905
     4.8565   4.8827   5.0114   5.0527   5.1301   5.1434   5.1856   5.2317
     5.2731   5.3165   5.3401   5.3676   5.4608   5.5501   5.6506   5.7174
     5.8594   5.9410   6.0917   6.2897   6.4296   6.6084   6.7620   6.8042
     7.0005   7.0878   7.1544   7.2205   7.3013   7.3814   7.4380   7.4716
     7.6794   7.7432   7.7955   7.8736   7.9229   7.9805   8.0564   8.1142
     8.3847   8.5040   8.5788   8.6106   8.6487   8.6866   8.7055   8.7792
    12.1975  12.2656  12.3340  12.4640  12.5124  12.5974  12.6884  12.7314
    12.7914  12.8246  12.8970  13.1023  13.4927  13.7338  13.8707  13.8961
    14.0950  14.1551  14.3294

          k =-0.5027-0.0020-0.2533 ( 11266 PWs)   bands (ev):

   -47.3373 -47.2845 -47.2801 -47.1541 -38.5053 -38.4741 -38.4368 -38.3196
   -23.6456 -23.6271 -23.5947 -23.5609 -23.5554 -23.5432 -23.5238 -23.5127
   -23.4980 -23.4650 -23.4311 -23.4060 -16.9014 -16.8212 -16.7515 -16.7226
   -16.7001 -16.6834 -16.6626 -16.6123 -16.5625 -16.5413 -16.4919 -16.4616
    -7.5630  -7.5290  -7.4135  -7.3736  -7.2468  -7.1777  -7.1142  -7.0387
    -6.9963  -6.9631  -6.9099  -6.8416  -6.8258  -6.7616  -6.7199  -6.6945
     4.8814   4.9058   4.9726   5.0026   5.1167   5.1327   5.1522   5.2178
     5.2636   5.3225   5.3641   5.3802   5.5269   5.5700   5.6808   5.7664
     5.9119   5.9985   6.0705   6.1119   6.5428   6.6448   6.7814   6.8633
     6.9317   6.9559   7.0036   7.1779   7.2125   7.3183   7.3532   7.4215
     7.7544   7.8435   7.8981   7.9455   8.0158   8.1070   8.1255   8.1747
     8.4275   8.4932   8.5146   8.5481   8.5991   8.6274   8.6807   8.7787
    12.2259  12.2646  12.3274  12.4486  12.4806  12.5687  12.6924  12.7303
    12.7816  12.8166  12.8851  13.1132  13.4492  13.7437  13.8436  13.9112
    14.1034  14.1113  14.4356

          k =-0.5029 0.2133-0.0124 ( 11282 PWs)   bands (ev):

   -47.3373 -47.2845 -47.2801 -47.1541 -38.5052 -38.4739 -38.4371 -38.3196
   -23.6465 -23.6278 -23.5953 -23.5645 -23.5560 -23.5442 -23.5241 -23.5148
   -23.4986 -23.4624 -23.4268 -23.4031 -16.9332 -16.8286 -16.7855 -16.7485
   -16.7101 -16.6817 -16.6659 -16.5688 -16.5450 -16.4974 -16.4879 -16.4461
    -7.6228  -7.5696  -7.4821  -7.4465  -7.3240  -7.2860  -7.2115  -7.1209
    -6.9405  -6.8933  -6.8259  -6.7753  -6.7508  -6.7015  -6.6344  -6.5584
     4.7771   4.8032   4.9892   5.0169   5.0666   5.1013   5.1900   5.2399
     5.2737   5.2909   5.3417   5.3817   5.5516   5.6210   5.7091   5.7757
     5.9732   6.0404   6.3740   6.4279   6.5035   6.6122   6.7322   6.7579
     6.9950   7.1238   7.1723   7.2339   7.2953   7.3505   7.4629   7.5190
     7.6782   7.7254   7.7686   7.8224   7.9094   7.9392   8.0067   8.0702
     8.3326   8.3590   8.4086   8.4481   8.4626   8.5176   8.7724   8.7889
    12.2075  12.2581  12.3226  12.3956  12.4991  12.6103  12.6584  12.7434
    12.8155  12.8888  12.9370  13.1081  13.4923  13.6558  13.7819  13.9319
    13.9938  14.0850  14.1455

          k =-0.5032 0.2135 0.1072 ( 11272 PWs)   bands (ev):

   -47.3373 -47.2845 -47.2801 -47.1541 -38.5052 -38.4739 -38.4371 -38.3196
   -23.6466 -23.6278 -23.5953 -23.5645 -23.5559 -23.5442 -23.5241 -23.5148
   -23.4987 -23.4625 -23.4268 -23.4031 -16.9328 -16.8283 -16.7853 -16.7487
   -16.7115 -16.6820 -16.6660 -16.5682 -16.5449 -16.4972 -16.4877 -16.4461
    -7.6441  -7.5604  -7.5247  -7.4200  -7.3253  -7.2155  -7.1779  -7.1088
    -6.9736  -6.9265  -6.8816  -6.8256  -6.7321  -6.6843  -6.5939  -6.5493
     4.7942   4.8381   4.9482   5.0036   5.0356   5.0952   5.1696   5.2286
     5.2759   5.3401   5.3983   5.4632   5.5027   5.6037   5.6978   5.7757
     5.9796   6.0600   6.2144   6.3038   6.5797   6.6275   6.7787   6.8848
     6.9273   7.0637   7.1390   7.2849   7.3353   7.3945   7.4853   7.5152
     7.6212   7.6823   7.7349   7.8519   7.8965   8.0371   8.0816   8.1481
     8.2925   8.3189   8.3499   8.4184   8.5135   8.5638   8.7128   8.7461
    12.1905  12.2672  12.3279  12.3741  12.5006  12.6035  12.6479  12.7591
    12.8125  12.8701  12.9374  13.1144  13.4763  13.6656  13.7228  13.9269
    14.0500  14.0758  14.2255

          k =-0.5024 0.2127-0.2516 ( 11282 PWs)   bands (ev):

   -47.3373 -47.2845 -47.2801 -47.1541 -38.5052 -38.4739 -38.4371 -38.3196
   -23.6466 -23.6277 -23.5953 -23.5645 -23.5557 -23.5443 -23.5241 -23.5148
   -23.4986 -23.4625 -23.4268 -23.4031 -16.9328 -16.8282 -16.7853 -16.7487
   -16.7119 -16.6828 -16.6650 -16.5678 -16.5449 -16.4973 -16.4878 -16.4462
    -7.6653  -7.5669  -7.5177  -7.4373  -7.2490  -7.2086  -7.1442  -7.0927
    -7.0084  -6.9702  -6.9179  -6.8724  -6.7094  -6.6602  -6.5815  -6.5420
     4.8416   4.8598   4.9265   4.9448   5.0127   5.0873   5.1700   5.1916
     5.3277   5.4059   5.4257   5.4944   5.5519   5.6126   5.6463   5.6882
     5.9917   6.0607   6.1734   6.1916   6.6038   6.7011   6.7962   6.8451
     6.9571   6.9983   7.1791   7.2457   7.3190   7.4580   7.5104   7.5583
     7.5835   7.6880   7.7156   7.8015   8.0035   8.0537   8.1449   8.2014
     8.2310   8.3182   8.3470   8.4134   8.5292   8.5935   8.6363   8.6771
    12.2092  12.2434  12.3223  12.3719  12.4825  12.5816  12.6476  12.7542
    12.8358  12.8685  12.9240  13.1105  13.4790  13.6587  13.7731  13.9047
    14.0435  14.0674  14.2207

          k =-0.5027 0.2130-0.1320 ( 11287 PWs)   bands (ev):

   -47.3373 -47.2845 -47.2801 -47.1541 -38.5052 -38.4739 -38.4371 -38.3196
   -23.6465 -23.6278 -23.5952 -23.5645 -23.5559 -23.5443 -23.5241 -23.5148
   -23.4986 -23.4625 -23.4268 -23.4031 -16.9332 -16.8285 -16.7855 -16.7486
   -16.7106 -16.6825 -16.6648 -16.5684 -16.5450 -16.4975 -16.4880 -16.4462
    -7.6498  -7.5662  -7.5051  -7.4156  -7.3208  -7.2229  -7.2026  -7.1072
    -6.9633  -6.9270  -6.8910  -6.8214  -6.7158  -6.6679  -6.6166  -6.5506
     4.7952   4.8330   4.9656   5.0044   5.0452   5.0618   5.1629   5.2054
     5.2921   5.3658   5.4158   5.4557   5.5433   5.5950   5.6746   5.7348
     5.9818   6.0872   6.1953   6.3013   6.5847   6.6434   6.8163   6.8516
     6.9533   7.0404   7.1298   7.2433   7.2639   7.4027   7.5242   7.5734
     7.6588   7.6931   7.7443   7.8237   7.8906   7.9972   8.0969   8.1466
     8.2785   8.3158   8.4019   8.4307   8.4906   8.5406   8.7054   8.7560
    12.2164  12.2462  12.3212  12.3905  12.4797  12.5808  12.6590  12.7440
    12.8345  12.8954  12.9179  13.1049  13.4929  13.6863  13.8003  13.8665
    14.0149  14.1072  14.1592

          k =-0.5037-0.4310-0.0176 ( 11284 PWs)   bands (ev):

   -47.3373 -47.2845 -47.2801 -47.1541 -38.5051 -38.4737 -38.4373 -38.3196
   -23.6475 -23.6284 -23.5958 -23.5681 -23.5561 -23.5456 -23.5244 -23.5163
   -23.4990 -23.4604 -23.4228 -23.4003 -16.9626 -16.8374 -16.8189 -16.7509
   -16.7102 -16.6813 -16.6681 -16.5547 -16.5330 -16.4934 -16.4460 -16.4283
    -7.6694  -7.6123  -7.5604  -7.5257  -7.3558  -7.3437  -7.2489  -7.1767
    -6.9181  -6.8763  -6.7812  -6.7198  -6.6962  -6.6046  -6.5671  -6.4622
     4.7241   4.7452   4.9040   4.9525   4.9897   5.0589   5.0898   5.1288
     5.3624   5.3905   5.4188   5.4294   5.5206   5.5853   6.1589   6.1912
     6.2075   6.3325   6.4093   6.4938   6.5479   6.5765   6.6289   6.7577
     6.8792   6.9067   6.9363   7.0194   7.1396   7.2760   7.4756   7.5851
     7.6619   7.7131   7.7744   7.8823   7.9103   8.0154   8.1031   8.1444
     8.2063   8.2610   8.3075   8.3294   8.4842   8.5150   8.6429   8.6519
    12.1667  12.2478  12.2921  12.4259  12.4562  12.5745  12.6266  12.7540
    12.8271  12.8822  13.0086  13.0848  13.4219  13.5541  13.7599  13.7711
    13.9203  14.0121  14.1204

          k =-0.5040-0.4307 0.1020 ( 11282 PWs)   bands (ev):

   -47.3373 -47.2845 -47.2801 -47.1541 -38.5051 -38.4737 -38.4373 -38.3196
   -23.6476 -23.6283 -23.5958 -23.5681 -23.5560 -23.5456 -23.5244 -23.5163
   -23.4990 -23.4604 -23.4228 -23.4003 -16.9624 -16.8370 -16.8192 -16.7506
   -16.7103 -16.6823 -16.6685 -16.5545 -16.5329 -16.4929 -16.4460 -16.4283
    -7.7163  -7.6131  -7.5756  -7.4687  -7.3932  -7.2663  -7.2214  -7.1356
    -6.9566  -6.9117  -6.8629  -6.7698  -6.6749  -6.5723  -6.5309  -6.4490
     4.7493   4.7601   4.9141   4.9420   4.9702   5.0187   5.1150   5.2224
     5.2950   5.3479   5.4048   5.4961   5.5806   5.6291   6.0363   6.0850
     6.1183   6.1893   6.2744   6.3494   6.5416   6.6886   6.7851   6.9232
     6.9736   7.0082   7.0433   7.1249   7.1550   7.2907   7.5064   7.5521
     7.6559   7.6961   7.7513   7.8166   7.8773   7.9371   8.0489   8.1179
     8.2115   8.2644   8.3287   8.4112   8.4819   8.5186   8.5909   8.6119
    12.1530  12.2120  12.2803  12.4333  12.4751  12.5818  12.6145  12.7744
    12.8409  12.8879  13.0030  13.0676  13.4343  13.6246  13.6834  13.8479
    13.9478  14.0075  14.1583

          k =-0.5032-0.4315-0.2568 ( 11294 PWs)   bands (ev):

   -47.3373 -47.2845 -47.2801 -47.1541 -38.5051 -38.4737 -38.4373 -38.3196
   -23.6476 -23.6283 -23.5958 -23.5681 -23.5559 -23.5457 -23.5245 -23.5163
   -23.4991 -23.4604 -23.4228 -23.4003 -16.9622 -16.8367 -16.8194 -16.7502
   -16.7103 -16.6833 -16.6690 -16.5543 -16.5327 -16.4925 -16.4460 -16.4282
    -7.7452  -7.6275  -7.5680  -7.4801  -7.3200  -7.2815  -7.1315  -7.0661
    -7.0383  -6.9739  -6.9193  -6.8132  -6.6595  -6.5539  -6.5041  -6.4361
     4.7918   4.8024   4.8494   4.8750   4.9904   5.0926   5.1701   5.2210
     5.3133   5.3225   5.3719   5.3947   5.7469   5.8293   5.8435   5.8958
     6.0238   6.0946   6.1757   6.2802   6.6090   6.7714   6.7928   6.9619
     7.0414   7.1420   7.1783   7.2093   7.3309   7.3635   7.4295   7.4730
     7.5930   7.6623   7.7089   7.8142   7.8672   7.8894   7.9782   8.0547
     8.2377   8.3400   8.3743   8.4140   8.4266   8.5280   8.5388   8.5814
    12.1418  12.1798  12.2724  12.4321  12.4819  12.5992  12.6093  12.7880
    12.8563  12.8969  12.9989  13.0484  13.4462  13.6242  13.7567  13.8446
    13.9831  14.0528  14.0923

     the Fermi energy is    10.6938 ev

!    total energy              =   -1543.63749113 Ry
     estimated scf accuracy    <          7.8E-11 Ry
     smearing contrib. (-TS)   =      -0.00000000 Ry
     internal energy E=F+TS    =   -1543.63749113 Ry

     The total energy is F=E-TS. E is the sum of the following terms:
     one-electron contribution =    -397.27807405 Ry
     hartree contribution      =     300.64859547 Ry
     xc contribution           =    -262.70678374 Ry
     ewald contribution        =   -1032.07483872 Ry
     one-center paw contrib.   =    -152.22639009 Ry

     convergence has been achieved in  10 iterations

     negative rho (up, down):  2.649E-01 0.000E+00

     Forces acting on atoms (cartesian axes, Ry/au):

     atom    1 type  1   force =    -0.00012370    0.00061861    0.00013320
     atom    2 type  1   force =    -0.00017141   -0.00017173   -0.00004842
     atom    3 type  1   force =     0.00030298    0.00020746    0.00028982
     atom    4 type  1   force =     0.00022158    0.00007059    0.00016049
     atom    5 type  2   force =     0.00007432   -0.00053723   -0.00004479
     atom    6 type  2   force =    -0.00039366    0.00021220   -0.00006261
     atom    7 type  2   force =    -0.00007326   -0.00012114    0.00008564
     atom    8 type  2   force =     0.00024821   -0.00038252    0.00009720
     atom    9 type  3   force =     0.00000340    0.00004712   -0.00000033
     atom   10 type  3   force =     0.00036777   -0.00016806   -0.00001740
     atom   11 type  3   force =     0.00018658    0.00021808   -0.00026897
     atom   12 type  3   force =     0.00002684   -0.00041263   -0.00013821
     atom   13 type  3   force =     0.00021187    0.00005615   -0.00049582
     atom   14 type  3   force =     0.00034708   -0.00015176   -0.00007003
     atom   15 type  3   force =    -0.00028558    0.00005186   -0.00007173
     atom   16 type  3   force =    -0.00003969   -0.00024176   -0.00018604
     atom   17 type  3   force =    -0.00040450   -0.00006420    0.00009247
     atom   18 type  3   force =    -0.00024725    0.00010146    0.00008924
     atom   19 type  3   force =     0.00004914    0.00035826   -0.00038733
     atom   20 type  3   force =    -0.00019971   -0.00020920   -0.00002239
     atom   21 type  3   force =     0.00017274    0.00016872    0.00007911
     atom   22 type  3   force =     0.00027573   -0.00007094    0.00040977
     atom   23 type  3   force =    -0.00043790    0.00033206    0.00023166
     atom   24 type  3   force =    -0.00011159    0.00008859    0.00014546

     Total force =     0.001997     Total SCF correction =     0.000026


     Computing stress (Cartesian axis) and pressure


     negative rho (up, down):  2.649E-01 0.000E+00
          total   stress  (Ry/bohr**3)                   (kbar)     P=       -0.09
  -0.00000073  -0.00000039  -0.00000051           -0.11       -0.06       -0.08
  -0.00000039  -0.00000026  -0.00000024           -0.06       -0.04       -0.04
  -0.00000051  -0.00000024  -0.00000080           -0.08       -0.04       -0.12

     Energy error            =      8.7E-06
     Gradient error          =      6.2E-04
     Cell gradient error     =      8.0E-07


     number of scf cycles    =  16
     number of bfgs steps    =  15

     enthalpy old            =   -1543.6374823938 Ry
     enthalpy new            =   -1543.6374911261 Ry

     CASE: enthalpy_new < enthalpy_old

     new trust radius        =       0.0028426768 bohr
     new conv_thr            =            1.0E-10 Ry

     new unit-cell volume =   1864.96677 a.u.^3 (   276.35956 Ang^3 )
     density =      4.88109 g/cm^3

CELL_PARAMETERS (angstrom)
   4.822019466  -0.006239710   0.009592007
  -0.016509584   5.649135970  -0.013281535
  -0.285221485  -0.083156361  10.144934532

ATOMIC_POSITIONS (angstrom)
Zr           -0.2329920289        3.8815970462        8.8682949623
Zr            4.7344993331        1.6895162010        1.1895739010
Zr            4.6974960979        3.8451632732        3.8311088484
Zr            2.2386605839        1.0065317209        3.8867860408
Ti            4.6336713786        1.6848144278        6.3998026043
Ti            2.1541220735        0.9380384205        8.8252440393
Ti            2.3739696645        4.6474638225        1.2559003763
Ti            2.2509371153        4.5125948715        6.3531591368
O             1.1088003906        3.4819187720        0.4417816651
O             1.0455487424        3.3725185711        5.5213745900
O             0.9122758744        2.1997481791        2.9233562519
O             0.8957850618        2.0673144177        8.0033957375
O             1.2549758592        4.9390273907        7.9518482702
O             1.1934539226        5.0336392272        2.7982643409
O             1.0305908553        0.5342489291        5.5412961567
O             1.3570199739        0.6117675098        0.2408499814
O             3.2381567537        4.9506665167        4.7533938677
O             3.2378756946        5.0320345994        9.8621877117
O             3.3811876460        0.5921822577        7.2508578493
O             3.3905343736        0.5607066140        2.2033705573
O             3.5382362022        3.4407698884        2.0874734668
O             3.6841019343        2.1293250259        4.7691602140
O             3.3975346085        2.1401462439        9.6195710938
O             3.5490378913        3.4188881217        7.1264905616



     Writing output data file ./out/O4TiZr.save/
     NEW-OLD atomic charge density approx. for the potential

     Check: negative core charge=   -0.000004

     negative rho (up, down):  2.650E-01 0.000E+00
     extrapolated charge  191.97956, renormalised to  192.00000

     total cpu time spent up to now is    64114.4 secs

     Self-consistent Calculation

     iteration #  1     ecut=    50.00 Ry     beta= 0.30
     Davidson diagonalization with overlap
     ethr =  1.00E-06,  avg # of iterations =  3.0

     Threshold (ethr) on eigenvalues was too large:
     Diagonalizing with lowered threshold

     Davidson diagonalization with overlap
     ethr =  8.53E-09,  avg # of iterations =  4.0

     negative rho (up, down):  2.650E-01 0.000E+00

     total cpu time spent up to now is    64773.3 secs

     total energy              =   -1543.63748831 Ry
     estimated scf accuracy    <       0.00001795 Ry

     iteration #  2     ecut=    50.00 Ry     beta= 0.30
     Davidson diagonalization with overlap
     ethr =  9.35E-09,  avg # of iterations =  4.4

     negative rho (up, down):  2.650E-01 0.000E+00

     total cpu time spent up to now is    65084.1 secs

     total energy              =   -1543.63749707 Ry
     estimated scf accuracy    <       0.00001489 Ry

     iteration #  3     ecut=    50.00 Ry     beta= 0.30
     Davidson diagonalization with overlap
     ethr =  7.75E-09,  avg # of iterations =  1.2

     negative rho (up, down):  2.650E-01 0.000E+00

     total cpu time spent up to now is    65281.6 secs

     total energy              =   -1543.63749755 Ry
     estimated scf accuracy    <       0.00000252 Ry

     iteration #  4     ecut=    50.00 Ry     beta= 0.30
     Davidson diagonalization with overlap
     ethr =  1.31E-09,  avg # of iterations =  3.6

     negative rho (up, down):  2.650E-01 0.000E+00

     total cpu time spent up to now is    65529.3 secs

     total energy              =   -1543.63749764 Ry
     estimated scf accuracy    <       0.00000058 Ry

     iteration #  5     ecut=    50.00 Ry     beta= 0.30
     Davidson diagonalization with overlap
     ethr =  3.01E-10,  avg # of iterations =  3.6

     negative rho (up, down):  2.650E-01 0.000E+00

     total cpu time spent up to now is    65809.4 secs

     total energy              =   -1543.63749778 Ry
     estimated scf accuracy    <       0.00000014 Ry

     iteration #  6     ecut=    50.00 Ry     beta= 0.30
     Davidson diagonalization with overlap
