
     Program PWSCF v.6.7MaX starts on  2Jul2026 at  2:46:32 

     This program is part of the open-source Quantum ESPRESSO suite
     for quantum simulation of materials; please cite
         "P. Giannozzi et al., J. Phys.:Condens. Matter 21 395502 (2009);
         "P. Giannozzi et al., J. Phys.:Condens. Matter 29 465901 (2017);
          URL http://www.quantum-espresso.org", 
     in publications or presentations arising from this work. More details at
     http://www.quantum-espresso.org/quote

     Parallel version (MPI), running on     8 processors

     MPI processes distributed on     1 nodes
     K-points division:     npool     =       2
     R & G space division:  proc/nbgrp/npool/nimage =       4
     Waiting for input...
     Reading input from standard input

     Current dimensions of program PWSCF are:
     Max number of different atomic species (ntypx) = 10
     Max number of k-points (npk) =  40000
     Max angular momentum in pseudopotentials (lmaxx) =  3
     file Ca.pbe-spn-kjpaw_psl.1.0.0.UPF: wavefunction(s)  3S renormalized
     file Si.pbe-n-kjpaw_psl.1.0.0.UPF: wavefunction(s)  3S 3P renormalized
     file O.pbe-n-kjpaw_psl.0.1.UPF: wavefunction(s)  2P renormalized

     Subspace diagonalization in iterative solution of the eigenvalue problem:
     one sub-group per band group will be used
     scalapack distributed-memory algorithm (size of sub-group:  2*  2 procs)

     Message from routine setup:
     using ibrav=0 with symmetry is DISCOURAGED, use correct ibrav instead

     Parallelization info
     --------------------
     sticks:   dense  smooth     PW     G-vecs:    dense   smooth      PW
     Min         976     484    139                88005    31100    4661
     Max         977     485    140                88010    31107    4663
     Sum        3905    1939    557               352027   124421   18647



     bravais-lattice index     =            0
     lattice parameter (alat)  =       9.6133  a.u.
     unit-cell volume          =    2605.7108 (a.u.)^3
     number of atoms/cell      =           28
     number of atomic types    =            3
     number of electrons       =       192.00
     number of Kohn-Sham states=          115
     kinetic-energy cutoff     =      50.0000  Ry
     charge density cutoff     =     400.0000  Ry
     scf convergence threshold =      1.0E-08
     mixing beta               =       0.3000
     number of iterations used =            8  plain     mixing
     energy convergence thresh.=      1.0E-05
     force convergence thresh. =      1.0E-04
     press convergence thresh. =      5.0E-01
     Exchange-correlation= SLA  PW   PBX  PBC
                           (   1   4   3   4   0   0   0)
     nstep                     =           50


     celldm(1)=   9.613257  celldm(2)=   0.000000  celldm(3)=   0.000000
     celldm(4)=   0.000000  celldm(5)=   0.000000  celldm(6)=   0.000000

     crystal axes: (cart. coord. in units of alat)
               a(1) = (   1.000000   0.000000   0.000000 )  
               a(2) = (  -0.000000   1.327775   0.000000 )  
               a(3) = (   0.000000   0.000000   2.208972 )  

     reciprocal axes: (cart. coord. in units 2 pi/alat)
               b(1) = (  1.000000  0.000000 -0.000000 )  
               b(2) = (  0.000000  0.753140  0.000000 )  
               b(3) = (  0.000000 -0.000000  0.452699 )  


     PseudoPot. # 1 for Ca read from file:
     /data/pseudopotentials/Ca.pbe-spn-kjpaw_psl.1.0.0.UPF
     MD5 check sum: 1e11ab70c77b02a7d7d676f41d47b751
     Pseudo is Projector augmented-wave + core cor, Zval = 10.0
     Generated using &quot;atomic&quot; code by A. Dal Corso  v.6.4.1
     Shape of augmentation charge: PSQ
     Using radial grid of 1169 points,  6 beta functions with: 
                l(1) =   0
                l(2) =   0
                l(3) =   1
                l(4) =   1
                l(5) =   2
                l(6) =   2
     Q(r) pseudized with 0 coefficients 


     PseudoPot. # 2 for Si read from file:
     /data/pseudopotentials/Si.pbe-n-kjpaw_psl.1.0.0.UPF
     MD5 check sum: c39c59da582df4a0d9f10159256ea34e
     Pseudo is Projector augmented-wave + core cor, Zval =  4.0
     Generated using &quot;atomic&quot; code by A. Dal Corso  v.6.3
     Shape of augmentation charge: PSQ
     Using radial grid of 1141 points,  6 beta functions with: 
                l(1) =   0
                l(2) =   0
                l(3) =   1
                l(4) =   1
                l(5) =   2
                l(6) =   2
     Q(r) pseudized with 0 coefficients 


     PseudoPot. # 3 for O  read from file:
     /data/pseudopotentials/O.pbe-n-kjpaw_psl.0.1.UPF
     MD5 check sum: 833c495a5d0f9b75bf046115549bffff
     Pseudo is Projector augmented-wave + core cor, Zval =  6.0
     Generated using &quot;atomic&quot; code by A. Dal Corso  v.6.3
     Shape of augmentation charge: BESSEL
     Using radial grid of 1095 points,  4 beta functions with: 
                l(1) =   0
                l(2) =   0
                l(3) =   1
                l(4) =   1
     Q(r) pseudized with 0 coefficients 


     atomic species   valence    mass     pseudopotential
        Ca            10.00    40.07800     Ca( 1.00)
        Si             4.00    28.08500     Si( 1.00)
        O              6.00    15.99900     O ( 1.00)

      8 Sym. Ops., with inversion, found ( 6 have fractional translation)



   Cartesian axes

     site n.     atom                  positions (alat units)
         1           Ca  tau(   1) = (   0.4904914   0.9958310   1.7241017  )
         2           Ca  tau(   2) = (   0.9904914   0.3319437   1.5893561  )
         3           Ca  tau(   3) = (   0.5095086   0.3319437   0.4848702  )
         4           Ca  tau(   4) = (   0.0095086   0.9958310   0.6196158  )
         5           Ca  tau(   5) = (   0.5000000   0.6638873   1.1044859  )
         6           Ca  tau(   6) = (   0.0000000   0.6638873   0.0000000  )
         7           Ca  tau(   7) = (   0.5000000   0.0000000   1.1044859  )
         8           Ca  tau(   8) = (   0.0000000   0.0000000   0.0000000  )
         9           Si  tau(   9) = (   0.9272615   0.9958310   1.3170455  )
        10           Si  tau(  10) = (   0.4272615   0.3319437   1.9964123  )
        11           Si  tau(  11) = (   0.0727385   0.3319437   0.8919263  )
        12           Si  tau(  12) = (   0.5727385   0.9958310   0.2125596  )
        13           O   tau(  13) = (   0.2030413   0.5902755   0.7466616  )
        14           O   tau(  14) = (   0.7030413   0.7374991   0.3578244  )
        15           O   tau(  15) = (   0.7969587   1.2541628   1.4623103  )
        16           O   tau(  16) = (   0.2969587   0.0736118   1.8511475  )
        17           O   tau(  17) = (   0.7969587   0.7374991   1.4623103  )
        18           O   tau(  18) = (   0.2969587   0.5902755   1.8511475  )
        19           O   tau(  19) = (   0.2030413   0.0736118   0.7466616  )
        20           O   tau(  20) = (   0.7030413   1.2541628   0.3578244  )
        21           O   tau(  21) = (   0.7978406   0.9958310   1.0181557  )
        22           O   tau(  22) = (   0.2978406   0.3319437   0.0863302  )
        23           O   tau(  23) = (   0.2021594   0.3319437   1.1908162  )
        24           O   tau(  24) = (   0.7021594   0.9958310   2.1226417  )
        25           O   tau(  25) = (   0.2530383   0.9958310   0.2052663  )
        26           O   tau(  26) = (   0.7530383   0.3319437   0.8992197  )
        27           O   tau(  27) = (   0.7469617   0.3319437   2.0037056  )
        28           O   tau(  28) = (   0.2469617   0.9958310   1.3097522  )

     number of k points=    27  Gaussian smearing, width (Ry)=  0.0050
                       cart. coord. in units 2pi/alat
        k(    1) = (   0.0000000   0.0000000   0.0000000), wk =   0.0312500
        k(    2) = (   0.0000000   0.0000000   0.1131748), wk =   0.0625000
        k(    3) = (   0.0000000   0.0000000  -0.2263496), wk =   0.0312500
        k(    4) = (   0.0000000   0.1882850   0.0000000), wk =   0.0625000
        k(    5) = (   0.0000000   0.1882850   0.1131748), wk =   0.1250000
        k(    6) = (   0.0000000   0.1882850  -0.2263496), wk =   0.0625000
        k(    7) = (   0.0000000  -0.3765699   0.0000000), wk =   0.0312500
        k(    8) = (   0.0000000  -0.3765699   0.1131748), wk =   0.0625000
        k(    9) = (   0.0000000  -0.3765699  -0.2263496), wk =   0.0312500
        k(   10) = (   0.2500000   0.0000000   0.0000000), wk =   0.0625000
        k(   11) = (   0.2500000   0.0000000   0.1131748), wk =   0.1250000
        k(   12) = (   0.2500000   0.0000000  -0.2263496), wk =   0.0625000
        k(   13) = (   0.2500000   0.1882850   0.0000000), wk =   0.1250000
        k(   14) = (   0.2500000   0.1882850   0.1131748), wk =   0.2500000
        k(   15) = (   0.2500000   0.1882850  -0.2263496), wk =   0.1250000
        k(   16) = (   0.2500000  -0.3765699   0.0000000), wk =   0.0625000
        k(   17) = (   0.2500000  -0.3765699   0.1131748), wk =   0.1250000
        k(   18) = (   0.2500000  -0.3765699  -0.2263496), wk =   0.0625000
        k(   19) = (  -0.5000000   0.0000000   0.0000000), wk =   0.0312500
        k(   20) = (  -0.5000000   0.0000000   0.1131748), wk =   0.0625000
        k(   21) = (  -0.5000000   0.0000000  -0.2263496), wk =   0.0312500
        k(   22) = (  -0.5000000   0.1882850   0.0000000), wk =   0.0625000
        k(   23) = (  -0.5000000   0.1882850   0.1131748), wk =   0.1250000
        k(   24) = (  -0.5000000   0.1882850  -0.2263496), wk =   0.0625000
        k(   25) = (  -0.5000000  -0.3765699   0.0000000), wk =   0.0312500
        k(   26) = (  -0.5000000  -0.3765699   0.1131748), wk =   0.0625000
        k(   27) = (  -0.5000000  -0.3765699  -0.2263496), wk =   0.0312500

     Dense  grid:   352027 G-vectors     FFT dimensions: (  64,  90, 144)

     Smooth grid:   124421 G-vectors     FFT dimensions: (  48,  60,  96)

     Estimated max dynamical RAM per process >     344.68 MB

     Estimated total dynamical RAM >       2.69 GB

     Check: negative core charge=   -0.000002

     Initial potential from superposition of free atoms

     starting charge  191.95890, renormalised to  192.00000
     Starting wfcs are  144 randomized atomic wfcs
     Checking if some PAW data can be deallocated... 

     total cpu time spent up to now is      183.2 secs

     Self-consistent Calculation

     iteration #  1     ecut=    50.00 Ry     beta= 0.30
     Davidson diagonalization with overlap
     ethr =  1.00E-02,  avg # of iterations =  7.0

     total cpu time spent up to now is      833.6 secs

     total energy              =   -1924.23842312 Ry
     estimated scf accuracy    <       7.57149030 Ry

     iteration #  2     ecut=    50.00 Ry     beta= 0.30
     Davidson diagonalization with overlap
     ethr =  3.94E-03,  avg # of iterations =  2.0

     total cpu time spent up to now is     1285.6 secs

     total energy              =   -1925.39205871 Ry
     estimated scf accuracy    <       0.54011611 Ry

     iteration #  3     ecut=    50.00 Ry     beta= 0.30
     Davidson diagonalization with overlap
     c_bands:  3 eigenvalues not converged
     c_bands:  1 eigenvalues not converged
     c_bands:  1 eigenvalues not converged
     c_bands:  1 eigenvalues not converged
     c_bands:  2 eigenvalues not converged
     c_bands:  2 eigenvalues not converged
     c_bands:  2 eigenvalues not converged
     c_bands:  1 eigenvalues not converged
     ethr =  2.81E-04,  avg # of iterations = 16.4

     total cpu time spent up to now is     2414.3 secs

     total energy              =   -1925.66566513 Ry
     estimated scf accuracy    <       0.24456731 Ry

     iteration #  4     ecut=    50.00 Ry     beta= 0.30
     Davidson diagonalization with overlap
     ethr =  1.27E-04,  avg # of iterations = 10.6

     total cpu time spent up to now is     3049.2 secs

     total energy              =   -1925.74316204 Ry
     estimated scf accuracy    <       0.09926337 Ry

     iteration #  5     ecut=    50.00 Ry     beta= 0.30
     Davidson diagonalization with overlap
     c_bands:  1 eigenvalues not converged
     ethr =  5.17E-05,  avg # of iterations =  4.4

     total cpu time spent up to now is     3510.6 secs

     total energy              =   -1925.72822968 Ry
     estimated scf accuracy    <       0.03997798 Ry

     iteration #  6     ecut=    50.00 Ry     beta= 0.30
     Davidson diagonalization with overlap
     c_bands:  3 eigenvalues not converged
     c_bands:  2 eigenvalues not converged
     c_bands:  3 eigenvalues not converged
     c_bands:  4 eigenvalues not converged
     c_bands:  2 eigenvalues not converged
     ethr =  2.08E-05,  avg # of iterations = 17.1

     total cpu time spent up to now is     4305.1 secs

     total energy              =   -1925.73858640 Ry
     estimated scf accuracy    <       0.00111219 Ry

     iteration #  7     ecut=    50.00 Ry     beta= 0.30
     Davidson diagonalization with overlap
     c_bands:  2 eigenvalues not converged
     c_bands:  4 eigenvalues not converged
     c_bands:  2 eigenvalues not converged
     c_bands:  2 eigenvalues not converged
     c_bands:  3 eigenvalues not converged
     c_bands:  3 eigenvalues not converged
     c_bands:  1 eigenvalues not converged
     c_bands:  2 eigenvalues not converged
     c_bands:  1 eigenvalues not converged
     ethr =  5.79E-07,  avg # of iterations = 19.3

     total cpu time spent up to now is     5512.0 secs

     total energy              =   -1925.73968742 Ry
     estimated scf accuracy    <       0.00186542 Ry

     iteration #  8     ecut=    50.00 Ry     beta= 0.30
     Davidson diagonalization with overlap
     c_bands:  1 eigenvalues not converged
     c_bands:  2 eigenvalues not converged
     c_bands:  1 eigenvalues not converged
     c_bands:  1 eigenvalues not converged
     ethr =  5.79E-07,  avg # of iterations =  9.3

     total cpu time spent up to now is     6046.3 secs

     total energy              =   -1925.73974547 Ry
     estimated scf accuracy    <       0.00044237 Ry

     iteration #  9     ecut=    50.00 Ry     beta= 0.30
     Davidson diagonalization with overlap
     c_bands:  1 eigenvalues not converged
     ethr =  2.30E-07,  avg # of iterations =  5.3

     total cpu time spent up to now is     6579.6 secs

     total energy              =   -1925.73994227 Ry
     estimated scf accuracy    <       0.00015115 Ry

     iteration # 10     ecut=    50.00 Ry     beta= 0.30
     Davidson diagonalization with overlap
     ethr =  7.87E-08,  avg # of iterations =  2.1

     total cpu time spent up to now is     7008.1 secs

     total energy              =   -1925.73995233 Ry
     estimated scf accuracy    <       0.00003223 Ry

     iteration # 11     ecut=    50.00 Ry     beta= 0.30
     Davidson diagonalization with overlap
     ethr =  1.68E-08,  avg # of iterations =  5.3

     total cpu time spent up to now is     7590.5 secs

     total energy              =   -1925.73996355 Ry
     estimated scf accuracy    <       0.00000917 Ry

     iteration # 12     ecut=    50.00 Ry     beta= 0.30
     Davidson diagonalization with overlap
     ethr =  4.78E-09,  avg # of iterations =  2.4

     total cpu time spent up to now is     7981.7 secs

     total energy              =   -1925.73996227 Ry
     estimated scf accuracy    <       0.00000349 Ry

     iteration # 13     ecut=    50.00 Ry     beta= 0.30
     Davidson diagonalization with overlap
     ethr =  1.82E-09,  avg # of iterations =  4.6

     total cpu time spent up to now is     8573.9 secs

     total energy              =   -1925.73996372 Ry
     estimated scf accuracy    <       0.00000109 Ry

     iteration # 14     ecut=    50.00 Ry     beta= 0.30
     Davidson diagonalization with overlap
     ethr =  5.67E-10,  avg # of iterations =  3.6

     total cpu time spent up to now is     9006.6 secs

     total energy              =   -1925.73996402 Ry
     estimated scf accuracy    <       0.00000011 Ry

     iteration # 15     ecut=    50.00 Ry     beta= 0.30
     Davidson diagonalization with overlap
     ethr =  5.92E-11,  avg # of iterations =  6.6

     total cpu time spent up to now is     9733.3 secs

     total energy              =   -1925.73996407 Ry
     estimated scf accuracy    <       0.00000008 Ry

     iteration # 16     ecut=    50.00 Ry     beta= 0.30
     Davidson diagonalization with overlap
     ethr =  4.24E-11,  avg # of iterations =  2.0

     total cpu time spent up to now is    10159.6 secs

     End of self-consistent calculation

          k = 0.0000 0.0000 0.0000 ( 15515 PWs)   bands (ev):

   -32.0568 -32.0528 -32.0142 -32.0141 -31.9879 -31.9838 -31.9828 -31.9827
   -14.1020 -14.0333 -13.6289 -13.5525 -13.5316 -13.4939 -13.4847 -13.3778
   -13.2852 -13.2709 -13.2668 -13.2334 -13.1531 -13.1304 -13.1090 -13.0921
   -13.0918 -13.0502 -13.0361 -13.0231 -13.0054 -12.9966 -12.9824 -12.9727
   -12.3225 -11.7820 -11.4179 -11.3444 -11.0118 -10.9061 -10.6407 -10.6032
   -10.5666 -10.5168 -10.4479 -10.3434 -10.3427 -10.3376 -10.1876 -10.1148
     0.1212   0.2476   0.4350   0.4644   1.2853   1.4116   1.7978   1.8445
     1.9612   2.0006   2.0289   2.0652   2.1541   2.5279   2.6083   2.8052
     3.4451   3.5033   3.5494   3.5842   3.6003   3.7499   3.7695   3.8451
     3.9025   3.9083   3.9246   3.9635   3.9857   4.0101   4.2488   4.3383
     4.4743   4.5473   4.5645   4.5933   4.6079   4.6243   4.6644   4.7142
     4.7316   4.8727   4.9618   5.0330   5.0797   5.1924   5.3363   5.3421
     9.7679  10.8444  11.3396  11.4886  11.5337  11.5892  12.0257  12.0261
    12.1800  12.4549  12.5970  12.6842  12.6872  12.7364  12.7829  12.8964
    13.1070  13.1816  13.2329

          k = 0.0000 0.0000 0.1132 ( 15518 PWs)   bands (ev):

   -32.0562 -32.0534 -32.0142 -32.0141 -31.9873 -31.9844 -31.9828 -31.9827
   -14.0926 -14.0440 -13.6201 -13.5571 -13.5488 -13.5008 -13.4783 -13.3630
   -13.3381 -13.2344 -13.2122 -13.1853 -13.1706 -13.1326 -13.1155 -13.0938
   -13.0906 -13.0683 -13.0545 -13.0505 -13.0202 -12.9947 -12.9896 -12.9751
   -12.2391 -11.8720 -11.3926 -11.3499 -10.9770 -10.8946 -10.6715 -10.6264
   -10.5814 -10.4743 -10.4390 -10.4356 -10.3162 -10.2507 -10.2078 -10.1311
     0.1418   0.2322   0.4370   0.4565   1.3095   1.3996   1.8267   1.8603
     1.9401   1.9678   1.9714   2.0088   2.2631   2.5556   2.5863   2.7751
     3.4434   3.4856   3.5760   3.5964   3.6276   3.7318   3.7458   3.7970
     3.8968   3.9462   3.9669   3.9759   3.9760   4.1089   4.1850   4.3707
     4.4684   4.5117   4.5638   4.5867   4.5886   4.6215   4.6920   4.6951
     4.7978   4.8432   4.9373   4.9918   5.1146   5.2187   5.2970   5.3245
     9.9000  10.6281  11.3821  11.5504  11.5912  11.6354  11.9186  12.1322
    12.2056  12.2467  12.5589  12.6359  12.6438  12.7713  12.8205  13.0369
    13.0556  13.2367  13.3208

          k = 0.0000 0.0000-0.2263 ( 15532 PWs)   bands (ev):

   -32.0548 -32.0548 -32.0141 -32.0141 -31.9859 -31.9859 -31.9827 -31.9827
   -14.0689 -14.0689 -13.5941 -13.5941 -13.5319 -13.5319 -13.4329 -13.4329
   -13.2502 -13.2502 -13.1740 -13.1740 -13.1393 -13.1393 -13.1122 -13.1122
   -13.0981 -13.0981 -13.0830 -13.0830 -13.0107 -13.0107 -12.9817 -12.9817
   -12.0574 -12.0574 -11.3647 -11.3647 -10.9093 -10.9093 -10.6868 -10.6868
   -10.5212 -10.5212 -10.4412 -10.4412 -10.2592 -10.2592 -10.1781 -10.1781
     0.1895   0.1895   0.4439   0.4439   1.3607   1.3607   1.8968   1.8968
     1.9062   1.9062   1.9395   1.9395   2.4234   2.4234   2.6927   2.6927
     3.4552   3.4552   3.6129   3.6129   3.6821   3.6821   3.7326   3.7326
     3.9403   3.9403   3.9643   3.9643   4.0792   4.0792   4.3253   4.3253
     4.4385   4.4385   4.5584   4.5584   4.6054   4.6054   4.7027   4.7027
     4.8764   4.8764   4.8941   4.8941   5.2052   5.2052   5.2748   5.2748
    10.2342  10.2342  11.4896  11.4897  11.7200  11.7200  11.9059  11.9059
    12.2482  12.2482  12.5286  12.5286  12.7213  12.7213  12.9147  12.9147
    13.3177  13.3324  13.3425

          k = 0.0000 0.1883 0.0000 ( 15551 PWs)   bands (ev):

   -32.0508 -32.0472 -32.0209 -32.0199 -31.9871 -31.9835 -31.9834 -31.9825
   -14.0268 -13.9456 -13.6585 -13.5859 -13.5070 -13.4351 -13.4273 -13.3885
   -13.3876 -13.3224 -13.2974 -13.2344 -13.1724 -13.1592 -13.1581 -13.1251
   -13.1030 -13.0670 -13.0601 -13.0564 -13.0271 -13.0102 -13.0011 -13.0001
   -12.0749 -11.6860 -11.4264 -11.4164 -10.9279 -10.8331 -10.6178 -10.5722
   -10.5550 -10.4993 -10.4913 -10.3860 -10.3662 -10.3638 -10.2290 -10.2090
     0.1744   0.2954   0.3989   0.4523   1.3942   1.5119   1.7812   1.9063
     1.9563   1.9858   2.0020   2.0723   2.3340   2.5150   2.5514   2.6725
     3.3736   3.3983   3.4692   3.5164   3.6221   3.6991   3.7233   3.8311
     3.8318   3.8476   3.8684   4.0826   4.1458   4.2320   4.2633   4.3059
     4.4333   4.4468   4.5261   4.5440   4.5868   4.6799   4.7014   4.7790
     4.7833   4.7901   4.9350   4.9579   5.0474   5.1701   5.2976   5.3309
    10.1195  11.0425  11.4651  11.6311  11.6872  11.7020  11.7527  12.1980
    12.2899  12.4005  12.4294  12.5937  12.7192  12.7661  12.8619  12.9826
    13.0438  13.0976  13.2336

          k = 0.0000 0.1883 0.1132 ( 15551 PWs)   bands (ev):

   -32.0503 -32.0477 -32.0208 -32.0200 -31.9866 -31.9839 -31.9833 -31.9826
   -14.0159 -13.9586 -13.6449 -13.5906 -13.5105 -13.4650 -13.4377 -13.4211
   -13.3374 -13.2999 -13.2651 -13.2267 -13.1849 -13.1827 -13.1473 -13.1419
   -13.0977 -13.0723 -13.0593 -13.0530 -13.0393 -13.0116 -13.0010 -12.9984
   -12.0235 -11.7557 -11.4219 -11.4095 -10.8978 -10.8286 -10.6132 -10.5980
   -10.5860 -10.4945 -10.4678 -10.4269 -10.3454 -10.3133 -10.2453 -10.2204
     0.1934   0.2795   0.4054   0.4424   1.4149   1.4988   1.7987   1.8833
     1.9266   1.9488   2.0752   2.1060   2.2799   2.4420   2.5973   2.6781
     3.3946   3.3960   3.4847   3.5401   3.5868   3.7215   3.7663   3.7941
     3.8099   3.8590   3.9244   4.0856   4.1412   4.1893   4.2412   4.3580
     4.3949   4.4944   4.5074   4.5461   4.5775   4.6633   4.6653   4.7395
     4.8083   4.8271   4.9350   4.9375   5.0842   5.1996   5.2605   5.3131
    10.2288  10.8535  11.5360  11.6543  11.6850  11.7077  11.8352  12.2463
    12.2499  12.3093  12.4458  12.5415  12.7050  12.7936  12.8194  12.9280
    13.0074  13.1852  13.2599

          k = 0.0000 0.1883-0.2263 ( 15568 PWs)   bands (ev):

   -32.0491 -32.0491 -32.0204 -32.0204 -31.9852 -31.9852 -31.9829 -31.9829
   -13.9883 -13.9883 -13.6134 -13.6134 -13.5008 -13.5008 -13.4409 -13.4409
   -13.2823 -13.2823 -13.2386 -13.2386 -13.1952 -13.1952 -13.1555 -13.1555
   -13.0860 -13.0860 -13.0496 -13.0496 -13.0373 -13.0373 -12.9966 -12.9966
   -11.8968 -11.8968 -11.4121 -11.4121 -10.8433 -10.8433 -10.6342 -10.6342
   -10.5404 -10.5404 -10.4422 -10.4422 -10.3014 -10.3014 -10.2506 -10.2506
     0.2379   0.2379   0.4222   0.4222   1.4607   1.4607   1.8402   1.8402
     1.9190   1.9190   2.1273   2.1273   2.3061   2.3061   2.6559   2.6559
     3.3971   3.3971   3.5270   3.5270   3.6420   3.6420   3.7885   3.7885
     3.8468   3.8468   4.0448   4.0448   4.1381   4.1381   4.2654   4.2654
     4.4612   4.4612   4.5369   4.5369   4.6028   4.6028   4.6920   4.6920
     4.8363   4.8363   4.9216   4.9216   5.1740   5.1740   5.2610   5.2610
    10.5119  10.5119  11.6167  11.6167  11.7553  11.7553  11.9615  11.9615
    12.3175  12.3176  12.4964  12.4965  12.6914  12.6915  12.8665  12.8666
    13.1652  13.1667  13.3181

          k = 0.0000-0.3766 0.0000 ( 15580 PWs)   bands (ev):

   -32.0362 -32.0362 -32.0336 -32.0336 -31.9853 -31.9853 -31.9826 -31.9826
   -13.8427 -13.8427 -13.7111 -13.7111 -13.4711 -13.4711 -13.3920 -13.3920
   -13.3716 -13.3716 -13.3087 -13.3087 -13.2279 -13.2279 -13.1601 -13.1601
   -13.0892 -13.0892 -13.0733 -13.0733 -13.0249 -13.0249 -13.0070 -13.0070
   -11.6897 -11.6897 -11.5088 -11.5088 -10.7504 -10.7504 -10.6641 -10.6641
   -10.4608 -10.4608 -10.4007 -10.4007 -10.3917 -10.3917 -10.3699 -10.3699
     0.2949   0.2949   0.3917   0.3917   1.6173   1.6173   1.7362   1.7362
     1.9652   1.9652   2.2610   2.2610   2.3412   2.3412   2.5143   2.5143
     3.3304   3.3304   3.4539   3.4539   3.5189   3.5189   3.8343   3.8343
     3.8490   3.8490   3.9927   3.9927   4.2334   4.2334   4.3084   4.3084
     4.4004   4.4004   4.5049   4.5049   4.6642   4.6642   4.7432   4.7432
     4.7748   4.7748   4.8758   4.8758   5.1331   5.1331   5.2753   5.2753
    10.9129  10.9129  11.3945  11.3945  11.9169  11.9169  12.1870  12.1870
    12.2872  12.2872  12.5100  12.5101  12.7073  12.7073  12.7774  12.7778
    13.1764  13.1767  13.2766

          k = 0.0000-0.3766 0.1132 ( 15550 PWs)   bands (ev):

   -32.0359 -32.0359 -32.0340 -32.0340 -31.9849 -31.9849 -31.9830 -31.9830
   -13.8272 -13.8272 -13.7360 -13.7360 -13.4577 -13.4577 -13.4038 -13.4038
   -13.3587 -13.3587 -13.3146 -13.3146 -13.2193 -13.2193 -13.1750 -13.1750
   -13.0806 -13.0806 -13.0742 -13.0742 -13.0230 -13.0230 -13.0088 -13.0088
   -11.6667 -11.6667 -11.5398 -11.5398 -10.7307 -10.7307 -10.6709 -10.6709
   -10.4574 -10.4574 -10.4162 -10.4162 -10.3859 -10.3859 -10.3690 -10.3690
     0.3089   0.3089   0.3773   0.3773   1.6353   1.6353   1.7198   1.7198
     1.9921   1.9921   2.1820   2.1820   2.3923   2.3923   2.4972   2.4972
     3.3578   3.3578   3.4370   3.4370   3.5713   3.5713   3.8249   3.8249
     3.8427   3.8427   3.9329   3.9329   4.2649   4.2649   4.3062   4.3062
     4.4135   4.4135   4.4920   4.4920   4.6616   4.6616   4.7468   4.7468
     4.7829   4.7829   4.8685   4.8685   5.1519   5.1519   5.2533   5.2533
    10.9763  10.9763  11.3234  11.3234  11.9252  11.9253  12.1736  12.1736
    12.3712  12.3712  12.4732  12.4733  12.7171  12.7172  12.7925  12.7928
    13.1575  13.1617  13.1659

          k = 0.0000-0.3766-0.2263 ( 15560 PWs)   bands (ev):

   -32.0349 -32.0349 -32.0349 -32.0349 -31.9839 -31.9839 -31.9839 -31.9839
   -13.7859 -13.7859 -13.7859 -13.7859 -13.4304 -13.4304 -13.4304 -13.4304
   -13.3330 -13.3330 -13.3330 -13.3330 -13.1997 -13.1997 -13.1997 -13.1997
   -13.0748 -13.0748 -13.0748 -13.0748 -13.0155 -13.0155 -13.0155 -13.0155
   -11.6071 -11.6071 -11.6071 -11.6071 -10.6944 -10.6944 -10.6944 -10.6944
   -10.4421 -10.4421 -10.4421 -10.4421 -10.3748 -10.3748 -10.3748 -10.3748
     0.3429   0.3429   0.3429   0.3429   1.6783   1.6783   1.6783   1.6783
     2.0709   2.0709   2.0709   2.0709   2.4523   2.4523   2.4523   2.4523
     3.4004   3.4004   3.4004   3.4004   3.7102   3.7102   3.7102   3.7102
     3.8688   3.8688   3.8688   3.8688   4.2960   4.2960   4.2960   4.2960
     4.4550   4.4550   4.4550   4.4550   4.6920   4.6920   4.6920   4.6920
     4.8382   4.8382   4.8382   4.8382   5.2011   5.2011   5.2011   5.2011
    11.1415  11.1415  11.1415  11.1415  12.0560  12.0560  12.0560  12.0560
    12.4263  12.4263  12.4264  12.4264  12.8084  12.8084  12.8087  12.8088
    13.0616  13.0618  13.0621

          k = 0.2500 0.0000 0.0000 ( 15580 PWs)   bands (ev):

   -32.0557 -32.0529 -32.0141 -32.0141 -31.9871 -31.9840 -31.9835 -31.9832
   -14.0485 -14.0323 -13.6761 -13.6124 -13.5554 -13.4645 -13.4277 -13.4117
   -13.3182 -13.2405 -13.2375 -13.2196 -13.1893 -13.1331 -13.1051 -13.1010
   -13.0846 -13.0656 -13.0486 -13.0356 -13.0331 -12.9953 -12.9878 -12.9831
   -11.9911 -11.8027 -11.6619 -11.5518 -10.7869 -10.7399 -10.6850 -10.6122
   -10.5708 -10.5564 -10.5537 -10.3688 -10.3120 -10.2531 -10.2256 -10.1507
     0.2013   0.2854   0.2956   0.3438   1.6029   1.8356   1.8987   1.9500
     1.9715   2.0964   2.1142   2.1390   2.2414   2.4405   2.4786   2.6209
     3.1865   3.2325   3.2711   3.4334   3.6243   3.6290   3.7495   3.7874
     3.8492   3.8599   3.9290   4.0221   4.0260   4.0374   4.2295   4.3149
     4.3721   4.4270   4.4950   4.5025   4.6374   4.7725   4.7981   4.8218
     4.9475   4.9831   5.0085   5.0179   5.1278   5.1407   5.3854   5.4464
    10.2320  10.9380  11.4997  11.6682  11.7417  11.7794  11.9400  12.0992
    12.1050  12.4726  12.6841  12.7657  12.7861  12.8147  12.9696  12.9859
    13.0337  13.2532  13.3361

          k = 0.2500 0.0000 0.1132 ( 15570 PWs)   bands (ev):

   -32.0553 -32.0533 -32.0141 -32.0141 -31.9867 -31.9845 -31.9833 -31.9832
   -14.0470 -14.0343 -13.6700 -13.6182 -13.5446 -13.4738 -13.4517 -13.3607
   -13.3574 -13.2535 -13.2391 -13.1909 -13.1652 -13.1388 -13.1130 -13.0998
   -13.0895 -13.0772 -13.0645 -13.0298 -13.0217 -13.0076 -12.9842 -12.9775
   -11.9573 -11.8197 -11.6559 -11.5836 -10.7673 -10.7175 -10.6776 -10.6413
   -10.5762 -10.5567 -10.5391 -10.4237 -10.2609 -10.2487 -10.2297 -10.1641
     0.2146   0.2740   0.3018   0.3356   1.6270   1.7785   1.9249   1.9703
     2.0086   2.0505   2.0877   2.1359   2.2617   2.4411   2.4840   2.6046
     3.1878   3.2263   3.2889   3.4020   3.6386   3.6518   3.7649   3.7993
     3.8704   3.8734   3.9288   4.0043   4.0054   4.0271   4.2181   4.2545
     4.4157   4.4481   4.5024   4.5032   4.6525   4.7851   4.8062   4.8083
     4.9476   4.9671   4.9800   5.0018   5.1479   5.1537   5.3839   5.4299
    10.3175  10.7972  11.5612  11.7202  11.7659  11.8300  11.9456  12.0476
    12.1137  12.3289  12.6211  12.6828  12.8957  12.9080  13.0219  13.0376
    13.0425  13.2154  13.2370

          k = 0.2500 0.0000-0.2263 ( 15582 PWs)   bands (ev):

   -32.0543 -32.0543 -32.0141 -32.0141 -31.9856 -31.9856 -31.9832 -31.9832
   -14.0411 -14.0411 -13.6449 -13.6449 -13.5155 -13.5155 -13.4150 -13.4150
   -13.2931 -13.2931 -13.2206 -13.2206 -13.1286 -13.1286 -13.1188 -13.1188
   -13.0855 -13.0855 -13.0448 -13.0448 -13.0211 -13.0211 -12.9780 -12.9780
   -11.8801 -11.8801 -11.6322 -11.6322 -10.7229 -10.7229 -10.6644 -10.6644
   -10.5754 -10.5754 -10.4911 -10.4911 -10.2390 -10.2390 -10.2027 -10.2027
     0.2454   0.2454   0.3175   0.3175   1.6914   1.6914   1.9961   1.9961
     2.0116   2.0116   2.0731   2.0731   2.3525   2.3525   2.5553   2.5553
     3.2041   3.2041   3.3391   3.3391   3.6621   3.6621   3.7949   3.7949
     3.9143   3.9143   3.9349   3.9349   4.0013   4.0013   4.2132   4.2132
     4.4616   4.4616   4.4862   4.4862   4.7389   4.7389   4.8083   4.8083
     4.9517   4.9517   4.9688   4.9688   5.1649   5.1649   5.3977   5.3977
    10.5367  10.5367  11.6742  11.6742  11.8382  11.8382  12.0591  12.0592
    12.0936  12.0937  12.6051  12.6051  13.0111  13.0114  13.0417  13.0494
    13.1310  13.1328  13.1881

          k = 0.2500 0.1883 0.0000 ( 15539 PWs)   bands (ev):

   -32.0499 -32.0473 -32.0206 -32.0198 -31.9865 -31.9837 -31.9837 -31.9832
   -13.9745 -13.9566 -13.6560 -13.5885 -13.5588 -13.4834 -13.4753 -13.3813
   -13.3523 -13.3035 -13.2797 -13.2339 -13.2129 -13.1743 -13.1450 -13.1139
   -13.1037 -13.0656 -13.0550 -13.0530 -13.0154 -13.0108 -12.9996 -12.9985
   -11.8389 -11.7249 -11.6176 -11.5237 -10.7754 -10.7164 -10.7020 -10.6128
   -10.5811 -10.5679 -10.5231 -10.3755 -10.3333 -10.2769 -10.2763 -10.2092
     0.2273   0.2964   0.3152   0.3564   1.6861   1.8518   1.9277   1.9510
     2.0406   2.0579   2.0725   2.1685   2.3540   2.3588   2.5016   2.5557
     3.2090   3.2455   3.3635   3.4200   3.5240   3.6035   3.6102   3.7191
     3.7459   3.8485   3.9562   3.9590   4.1102   4.1215   4.2629   4.2753
     4.3536   4.4571   4.4650   4.5223   4.6411   4.7602   4.8033   4.8413
     4.9441   4.9559   5.0216   5.0633   5.0768   5.1236   5.3424   5.3636
    10.4970  11.1229  11.5700  11.8116  11.8491  11.8877  11.9481  12.0855
    12.2023  12.4730  12.5160  12.7347  12.8131  12.8471  12.8923  12.9860
    13.0660  13.1000  13.2449

          k = 0.2500 0.1883 0.1132 ( 15555 PWs)   bands (ev):

   -32.0495 -32.0477 -32.0205 -32.0200 -31.9861 -31.9841 -31.9836 -31.9832
   -13.9718 -13.9570 -13.6558 -13.6031 -13.5384 -13.4929 -13.4703 -13.4189
   -13.3430 -13.3023 -13.2432 -13.2358 -13.2048 -13.1823 -13.1477 -13.1194
   -13.0961 -13.0628 -13.0579 -13.0458 -13.0261 -13.0168 -13.0030 -12.9977
   -11.8167 -11.7333 -11.6122 -11.5496 -10.7610 -10.7220 -10.6819 -10.6502
   -10.5732 -10.5551 -10.5090 -10.4139 -10.3077 -10.2811 -10.2686 -10.2185
     0.2405   0.3018   0.3051   0.3465   1.7086   1.8313   1.9178   1.9672
     1.9950   2.0875   2.1128   2.1673   2.2911   2.3703   2.5061   2.5572
     3.2194   3.2416   3.3594   3.4013   3.5480   3.5952   3.6700   3.7315
     3.7793   3.8362   3.8928   4.0029   4.0354   4.1048   4.2630   4.2921
     4.3511   4.4486   4.4703   4.5100   4.6818   4.7823   4.7967   4.8476
     4.9387   4.9428   5.0192   5.0276   5.1120   5.1393   5.3308   5.3500
    10.5720  10.9994  11.6522  11.7847  11.8334  11.9185  12.0014  12.1134
    12.2004  12.3062  12.5906  12.7104  12.7977  12.8150  12.8919  13.0144
    13.0811  13.1697  13.2567

          k = 0.2500 0.1883-0.2263 ( 15554 PWs)   bands (ev):

   -32.0486 -32.0486 -32.0202 -32.0202 -31.9851 -31.9851 -31.9834 -31.9834
   -13.9635 -13.9635 -13.6349 -13.6349 -13.5141 -13.5141 -13.4509 -13.4509
   -13.3218 -13.3218 -13.2348 -13.2348 -13.1710 -13.1710 -13.1514 -13.1514
   -13.0764 -13.0764 -13.0469 -13.0469 -13.0295 -13.0295 -13.0019 -13.0019
   -11.7677 -11.7677 -11.5914 -11.5914 -10.7324 -10.7324 -10.6740 -10.6740
   -10.5601 -10.5601 -10.4671 -10.4671 -10.2908 -10.2908 -10.2427 -10.2427
     0.2720   0.2720   0.3244   0.3244   1.7654   1.7654   1.9533   1.9533
     2.0162   2.0162   2.1808   2.1808   2.2939   2.2939   2.5396   2.5396
     3.2322   3.2322   3.3715   3.3715   3.5859   3.5859   3.7555   3.7555
     3.7876   3.7876   3.9233   3.9233   4.0471   4.0471   4.2753   4.2753
     4.3970   4.3970   4.4914   4.4914   4.7563   4.7563   4.8287   4.8287
     4.9356   4.9356   5.0078   5.0078   5.1453   5.1453   5.3264   5.3264
    10.7670  10.7670  11.7432  11.7432  11.8962  11.8962  12.0869  12.0869
    12.2015  12.2015  12.6051  12.6051  12.8021  12.8021  12.9986  12.9990
    13.1898  13.2189  13.2373

          k = 0.2500-0.3766 0.0000 ( 15570 PWs)   bands (ev):

   -32.0355 -32.0355 -32.0336 -32.0336 -31.9851 -31.9851 -31.9832 -31.9832
   -13.8355 -13.8355 -13.6918 -13.6918 -13.4728 -13.4728 -13.4543 -13.4543
   -13.3578 -13.3578 -13.3163 -13.3163 -13.2761 -13.2761 -13.1162 -13.1162
   -13.0794 -13.0794 -13.0605 -13.0605 -13.0147 -13.0147 -13.0036 -13.0036
   -11.6405 -11.6405 -11.5616 -11.5616 -10.7927 -10.7927 -10.6527 -10.6527
   -10.5121 -10.5121 -10.4459 -10.4459 -10.3360 -10.3360 -10.3120 -10.3120
     0.2750   0.2750   0.3575   0.3575   1.8186   1.8186   1.9738   1.9738
     2.0145   2.0145   2.2057   2.2057   2.3328   2.3328   2.4801   2.4801
     3.3071   3.3071   3.3821   3.3821   3.4958   3.4958   3.6095   3.6095
     3.7049   3.7049   4.0111   4.0111   4.0802   4.0802   4.2933   4.2933
     4.4219   4.4219   4.4699   4.4699   4.6952   4.6952   4.8129   4.8129
     4.9638   4.9638   5.0352   5.0352   5.1480   5.1480   5.2532   5.2532
    11.1437  11.1437  11.4782  11.4782  12.0317  12.0317  12.2660  12.2660
    12.4107  12.4107  12.5586  12.5587  12.7795  12.7806  12.9177  12.9183
    13.0447  13.0452  13.1221

          k = 0.2500-0.3766 0.1132 ( 15528 PWs)   bands (ev):

   -32.0353 -32.0353 -32.0339 -32.0339 -31.9848 -31.9848 -31.9834 -31.9834
   -13.8192 -13.8192 -13.7204 -13.7204 -13.4613 -13.4613 -13.4498 -13.4498
   -13.3687 -13.3687 -13.3310 -13.3310 -13.2386 -13.2386 -13.1342 -13.1342
   -13.0708 -13.0708 -13.0568 -13.0568 -13.0179 -13.0179 -13.0101 -13.0101
   -11.6297 -11.6297 -11.5739 -11.5739 -10.7786 -10.7786 -10.6832 -10.6832
   -10.4895 -10.4895 -10.4360 -10.4360 -10.3436 -10.3436 -10.3188 -10.3188
     0.2865   0.2865   0.3448   0.3448   1.8434   1.8434   1.9586   1.9586
     2.0207   2.0207   2.1541   2.1541   2.3742   2.3742   2.4741   2.4741
     3.3194   3.3194   3.3897   3.3897   3.4833   3.4833   3.5922   3.5922
     3.7500   3.7500   3.9373   3.9373   4.1315   4.1315   4.2653   4.2653
     4.4214   4.4214   4.4623   4.4623   4.7250   4.7250   4.8140   4.8140
     4.9729   4.9729   5.0250   5.0250   5.1607   5.1607   5.2356   5.2356
    11.1889  11.1889  11.4326  11.4326  12.0345  12.0345  12.2226  12.2226
    12.5053  12.5056  12.5156  12.5156  12.8203  12.8212  12.8954  12.8965
    12.9966  13.0042  13.1391

          k = 0.2500-0.3766-0.2263 ( 15524 PWs)   bands (ev):

   -32.0346 -32.0346 -32.0346 -32.0346 -31.9841 -31.9841 -31.9841 -31.9841
   -13.7752 -13.7752 -13.7752 -13.7752 -13.4493 -13.4493 -13.4493 -13.4493
   -13.3584 -13.3584 -13.3584 -13.3584 -13.1791 -13.1791 -13.1791 -13.1791
   -13.0581 -13.0581 -13.0581 -13.0581 -13.0194 -13.0194 -13.0194 -13.0194
   -11.6026 -11.6026 -11.6026 -11.6026 -10.7377 -10.7377 -10.7377 -10.7377
   -10.4488 -10.4488 -10.4488 -10.4488 -10.3376 -10.3376 -10.3376 -10.3376
     0.3150   0.3150   0.3150   0.3150   1.9023   1.9023   1.9023   1.9023
     2.0723   2.0723   2.0723   2.0723   2.4378   2.4378   2.4378   2.4378
     3.3544   3.3544   3.3544   3.3544   3.5361   3.5361   3.5361   3.5361
     3.8367   3.8367   3.8367   3.8367   4.1984   4.1984   4.1984   4.1984
     4.4395   4.4395   4.4395   4.4395   4.7834   4.7834   4.7834   4.7834
     4.9996   4.9996   4.9996   4.9996   5.1956   5.1956   5.1956   5.1956
    11.3074  11.3074  11.3074  11.3074  12.1176  12.1176  12.1176  12.1176
    12.5315  12.5315  12.5316  12.5318  12.8811  12.8811  12.8811  12.8822
    13.0007  13.0009  13.0010

          k =-0.5000 0.0000 0.0000 ( 15578 PWs)   bands (ev):

   -32.0538 -32.0538 -32.0140 -32.0140 -31.9853 -31.9853 -31.9839 -31.9839
   -14.0233 -14.0233 -13.6775 -13.6775 -13.4947 -13.4947 -13.3939 -13.3939
   -13.3277 -13.3277 -13.1770 -13.1770 -13.1575 -13.1575 -13.1199 -13.1199
   -13.0780 -13.0780 -13.0768 -13.0768 -13.0222 -13.0222 -12.9840 -12.9840
   -11.9415 -11.9415 -11.4086 -11.4086 -11.0221 -11.0221 -10.6702 -10.6702
   -10.4551 -10.4551 -10.4400 -10.4400 -10.2333 -10.2333 -10.2302 -10.2302
     0.1801   0.1801   0.3477   0.3477   1.9985   1.9985   2.1101   2.1101
     2.1480   2.1480   2.2403   2.2403   2.4228   2.4228   2.4733   2.4733
     2.9311   2.9311   3.1575   3.1575   3.3102   3.3102   3.5928   3.5928
     3.8287   3.8287   4.0113   4.0113   4.1114   4.1114   4.3142   4.3142
     4.3209   4.3209   4.4081   4.4081   4.7568   4.7568   4.8015   4.8015
     5.0173   5.0173   5.1525   5.1525   5.2817   5.2817   5.4726   5.4726
    10.7932  10.7932  11.7541  11.7541  12.0650  12.0650  12.2050  12.2050
    12.2887  12.2887  12.7859  12.7859  12.8891  12.8892  13.0326  13.0326
    13.0982  13.0985  13.3261

          k =-0.5000 0.0000 0.1132 ( 15568 PWs)   bands (ev):

   -32.0538 -32.0538 -32.0140 -32.0140 -31.9853 -31.9853 -31.9838 -31.9838
   -14.0258 -14.0258 -13.6678 -13.6678 -13.4894 -13.4894 -13.3947 -13.3947
   -13.3348 -13.3348 -13.2196 -13.2196 -13.1484 -13.1484 -13.1187 -13.1187
   -13.0890 -13.0890 -13.0386 -13.0386 -13.0245 -13.0245 -12.9788 -12.9788
   -11.9445 -11.9445 -11.4083 -11.4083 -11.0292 -11.0292 -10.6446 -10.6446
   -10.4634 -10.4634 -10.4551 -10.4551 -10.2333 -10.2333 -10.2250 -10.2250
     0.1799   0.1799   0.3472   0.3472   2.0039   2.0039   2.1172   2.1172
     2.1283   2.1283   2.2804   2.2804   2.4120   2.4120   2.4435   2.4435
     2.9398   2.9398   3.1588   3.1588   3.2967   3.2967   3.6056   3.6056
     3.8380   3.8380   3.9931   3.9931   4.1504   4.1504   4.3053   4.3053
     4.3113   4.3113   4.3848   4.3848   4.7659   4.7659   4.8029   4.8029
     5.0170   5.0170   5.1569   5.1569   5.2816   5.2816   5.4680   5.4680
    10.7884  10.7884  11.7879  11.7879  12.0816  12.0816  12.2327  12.2327
    12.2723  12.2723  12.7120  12.7120  12.8654  12.8654  13.0114  13.0118
    13.1134  13.1137  13.2747

          k =-0.5000 0.0000-0.2263 ( 15564 PWs)   bands (ev):

   -32.0538 -32.0538 -32.0140 -32.0140 -31.9853 -31.9853 -31.9838 -31.9838
   -14.0282 -14.0282 -13.6577 -13.6577 -13.4824 -13.4824 -13.3955 -13.3955
   -13.3447 -13.3447 -13.2488 -13.2488 -13.1339 -13.1339 -13.1172 -13.1172
   -13.1054 -13.1054 -13.0261 -13.0261 -13.0132 -13.0132 -12.9746 -12.9746
   -11.9475 -11.9475 -11.4081 -11.4081 -11.0358 -11.0358 -10.6120 -10.6120
   -10.4937 -10.4937 -10.4551 -10.4551 -10.2333 -10.2333 -10.2202 -10.2202
     0.1797   0.1797   0.3468   0.3468   2.0109   2.0109   2.1104   2.1104
     2.1249   2.1249   2.3486   2.3486   2.3819   2.3819   2.4008   2.4008
     2.9484   2.9484   3.1601   3.1601   3.2855   3.2855   3.6158   3.6158
     3.8479   3.8479   3.9808   3.9808   4.1921   4.1921   4.2811   4.2811
     4.3195   4.3195   4.3509   4.3509   4.7746   4.7746   4.8044   4.8044
     5.0166   5.0166   5.1612   5.1612   5.2814   5.2814   5.4633   5.4633
    10.7836  10.7836  11.8241  11.8242  12.1042  12.1042  12.2502  12.2502
    12.2632  12.2633  12.6449  12.6449  12.8458  12.8459  12.9821  12.9823
    13.1133  13.1140  13.2373

          k =-0.5000 0.1883 0.0000 ( 15576 PWs)   bands (ev):

   -32.0481 -32.0481 -32.0201 -32.0201 -31.9848 -31.9848 -31.9840 -31.9840
   -13.9499 -13.9499 -13.6227 -13.6227 -13.5669 -13.5669 -13.4260 -13.4260
   -13.3067 -13.3067 -13.2493 -13.2493 -13.2205 -13.2205 -13.1121 -13.1121
   -13.0861 -13.0861 -13.0517 -13.0517 -13.0195 -13.0195 -12.9960 -12.9960
   -11.8311 -11.8311 -11.4420 -11.4420 -10.9298 -10.9298 -10.6859 -10.6859
   -10.4715 -10.4715 -10.4408 -10.4408 -10.2862 -10.2862 -10.2468 -10.2468
     0.2177   0.2177   0.3419   0.3419   1.9707   1.9707   2.0991   2.0991
     2.1415   2.1415   2.2799   2.2799   2.4253   2.4253   2.5097   2.5097
     2.9987   2.9987   3.1632   3.1632   3.3653   3.3653   3.4740   3.4740
     3.7577   3.7577   4.0024   4.0024   4.1456   4.1456   4.2937   4.2937
     4.3239   4.3239   4.3827   4.3827   4.8225   4.8225   4.8650   4.8650
     5.0359   5.0359   5.1314   5.1314   5.2200   5.2200   5.3638   5.3638
    10.9982  10.9982  11.7906  11.7906  12.1358  12.1358  12.2936  12.2937
    12.3177  12.3177  12.7253  12.7254  12.8335  12.8336  12.9590  12.9591
    13.1267  13.1283  13.2346

          k =-0.5000 0.1883 0.1132 ( 15578 PWs)   bands (ev):

   -32.0481 -32.0481 -32.0201 -32.0201 -31.9849 -31.9849 -31.9839 -31.9839
   -13.9512 -13.9512 -13.6122 -13.6122 -13.5595 -13.5595 -13.4523 -13.4523
   -13.3192 -13.3192 -13.2537 -13.2537 -13.1828 -13.1828 -13.1241 -13.1241
   -13.0809 -13.0809 -13.0457 -13.0457 -13.0293 -13.0293 -12.9958 -12.9958
   -11.8310 -11.8310 -11.4465 -11.4465 -10.9324 -10.9324 -10.6530 -10.6530
   -10.5096 -10.5096 -10.4394 -10.4394 -10.2762 -10.2762 -10.2470 -10.2470
     0.2183   0.2183   0.3403   0.3403   1.9860   1.9860   2.0808   2.0808
     2.1519   2.1519   2.2673   2.2673   2.4177   2.4177   2.5284   2.5284
     3.0113   3.0113   3.1585   3.1585   3.2978   3.2978   3.5474   3.5474
     3.7656   3.7656   3.9787   3.9787   4.1574   4.1574   4.2774   4.2774
     4.3130   4.3130   4.3738   4.3738   4.8389   4.8389   4.8703   4.8703
     5.0349   5.0349   5.1403   5.1403   5.2173   5.2173   5.3587   5.3587
    10.9956  10.9956  11.8373  11.8373  12.0894  12.0894  12.2978  12.2979
    12.3313  12.3313  12.6931  12.6932  12.8341  12.8342  12.9524  12.9529
    13.1030  13.1039  13.2317

          k =-0.5000 0.1883-0.2263 ( 15580 PWs)   bands (ev):

   -32.0481 -32.0481 -32.0201 -32.0201 -31.9849 -31.9849 -31.9839 -31.9839
   -13.9525 -13.9525 -13.5990 -13.5990 -13.5530 -13.5530 -13.4722 -13.4722
   -13.3503 -13.3503 -13.2206 -13.2206 -13.1581 -13.1581 -13.1508 -13.1508
   -13.0754 -13.0754 -13.0512 -13.0512 -13.0182 -13.0182 -13.0044 -13.0044
   -11.8308 -11.8308 -11.4510 -11.4510 -10.9344 -10.9344 -10.5848 -10.5848
   -10.5767 -10.5767 -10.4447 -10.4447 -10.2608 -10.2608 -10.2526 -10.2526
     0.2190   0.2190   0.3386   0.3386   2.0166   2.0166   2.0419   2.0419
     2.2025   2.2025   2.2105   2.2105   2.4311   2.4311   2.5347   2.5347
     3.0259   3.0259   3.1535   3.1535   3.2556   3.2556   3.5944   3.5944
     3.7765   3.7765   3.9538   3.9538   4.1680   4.1680   4.2575   4.2575
     4.3140   4.3140   4.3561   4.3561   4.8603   4.8603   4.8708   4.8708
     5.0330   5.0330   5.1509   5.1509   5.2131   5.2131   5.3534   5.3534
    10.9932  10.9932  11.9222  11.9222  12.0041  12.0041  12.3144  12.3144
    12.3267  12.3268  12.6885  12.6887  12.8219  12.8227  12.9201  12.9207
    13.1458  13.1465  13.1847

          k =-0.5000-0.3766 0.0000 ( 15516 PWs)   bands (ev):

   -32.0343 -32.0343 -32.0342 -32.0342 -31.9843 -31.9843 -31.9843 -31.9843
   -13.8078 -13.8078 -13.7174 -13.7174 -13.4821 -13.4821 -13.4524 -13.4524
   -13.3652 -13.3652 -13.3362 -13.3362 -13.2844 -13.2844 -13.1229 -13.1229
   -13.0549 -13.0549 -13.0535 -13.0535 -12.9998 -12.9998 -12.9988 -12.9988
   -11.6635 -11.6635 -11.5388 -11.5388 -10.7829 -10.7829 -10.7506 -10.7506
   -10.4863 -10.4863 -10.4372 -10.4372 -10.3280 -10.3280 -10.2862 -10.2862
     0.2738   0.2738   0.3174   0.3174   1.9804   1.9804   2.0329   2.0329
     2.1683   2.1683   2.2776   2.2776   2.4966   2.4966   2.5031   2.5031
     3.1836   3.1836   3.1922   3.1922   3.2391   3.2391   3.3822   3.3822
     3.7447   3.7447   3.9404   3.9404   4.2236   4.2236   4.2256   4.2256
     4.3320   4.3320   4.3791   4.3791   4.8722   4.8722   5.0142   5.0142
     5.0574   5.0574   5.0953   5.0953   5.1299   5.1299   5.2136   5.2136
    11.4691  11.4691  11.4720  11.4720  12.2995  12.2996  12.3920  12.3921
    12.4774  12.4776  12.6053  12.6053  12.7293  12.7295  13.0064  13.0067
    13.1253  13.1256  13.1700

          k =-0.5000-0.3766 0.1132 ( 15528 PWs)   bands (ev):

   -32.0343 -32.0343 -32.0342 -32.0342 -31.9843 -31.9843 -31.9843 -31.9843
   -13.7954 -13.7954 -13.7311 -13.7311 -13.4812 -13.4812 -13.4620 -13.4620
   -13.3771 -13.3771 -13.3482 -13.3482 -13.2338 -13.2338 -13.1256 -13.1256
   -13.0515 -13.0515 -13.0505 -13.0505 -13.0123 -13.0123 -13.0071 -13.0071
   -11.6477 -11.6477 -11.5600 -11.5600 -10.7679 -10.7679 -10.7405 -10.7405
   -10.5010 -10.5010 -10.4607 -10.4607 -10.3117 -10.3117 -10.2837 -10.2837
     0.2796   0.2796   0.3103   0.3103   2.0027   2.0027   2.0407   2.0407
     2.1519   2.1519   2.2169   2.2169   2.5301   2.5301   2.5402   2.5402
     3.1671   3.1671   3.1702   3.1702   3.2677   3.2677   3.3663   3.3663
     3.7787   3.7787   3.9115   3.9115   4.2204   4.2204   4.2343   4.2343
     4.3195   4.3195   4.3605   4.3605   4.8943   4.8943   4.9925   4.9925
     5.0741   5.0741   5.0986   5.0986   5.1431   5.1431   5.2052   5.2052
    11.4775  11.4775  11.4799  11.4799  12.2454  12.2454  12.3087  12.3087
    12.5594  12.5594  12.6766  12.6768  12.7519  12.7520  12.9175  12.9176
    13.0649  13.0698  13.1264

          k =-0.5000-0.3766-0.2263 ( 15576 PWs)   bands (ev):

   -32.0343 -32.0343 -32.0343 -32.0343 -31.9843 -31.9843 -31.9843 -31.9843
   -13.7640 -13.7640 -13.7640 -13.7640 -13.4759 -13.4759 -13.4759 -13.4759
   -13.3696 -13.3696 -13.3696 -13.3696 -13.1610 -13.1610 -13.1610 -13.1610
   -13.0454 -13.0454 -13.0454 -13.0454 -13.0224 -13.0224 -13.0224 -13.0224
   -11.6066 -11.6066 -11.6066 -11.6066 -10.7410 -10.7410 -10.7410 -10.7410
   -10.4991 -10.4991 -10.4991 -10.4991 -10.2898 -10.2898 -10.2898 -10.2898
     0.2943   0.2943   0.2943   0.2943   2.0435   2.0435   2.0435   2.0435
     2.1450   2.1450   2.1450   2.1450   2.5649   2.5649   2.5649   2.5649
     3.1515   3.1515   3.1515   3.1515   3.3216   3.3216   3.3216   3.3216
     3.8469   3.8469   3.8469   3.8469   4.2298   4.2298   4.2298   4.2298
     4.3253   4.3253   4.3253   4.3253   4.9434   4.9434   4.9434   4.9434
     5.0955   5.0955   5.0955   5.0955   5.1771   5.1771   5.1771   5.1771
    11.4875  11.4875  11.4875  11.4875  12.2264  12.2264  12.2264  12.2264
    12.6740  12.6741  12.6741  12.6747  12.8208  12.8208  12.8210  12.8215
    13.0389  13.0393  13.0396

     the Fermi energy is     7.7697 ev

!    total energy              =   -1925.73996409 Ry

     total all-electron energy =    -15618.841831 Ry
     estimated scf accuracy    <          1.9E-09 Ry
     smearing contrib. (-TS)   =      -0.00000000 Ry
     internal energy E=F+TS    =   -1925.73996409 Ry

     The total energy is F=E-TS. E is the sum of the following terms:
     one-electron contribution =    -392.46894991 Ry
     hartree contribution      =     298.88627170 Ry
     xc contribution           =    -244.15571685 Ry
     ewald contribution        =    -813.72196011 Ry
     one-center paw contrib.   =    -774.27960892 Ry

     convergence has been achieved in  16 iterations

     Forces acting on atoms (cartesian axes, Ry/au):

     atom    1 type  1   force =     0.00031430    0.00000000    0.00087340
     atom    2 type  1   force =     0.00031430    0.00000000   -0.00087340
     atom    3 type  1   force =    -0.00031430    0.00000000   -0.00087340
     atom    4 type  1   force =    -0.00031430    0.00000000    0.00087340
     atom    5 type  1   force =     0.00000000    0.00000000    0.00000000
     atom    6 type  1   force =     0.00000000    0.00000000    0.00000000
     atom    7 type  1   force =     0.00000000    0.00000000    0.00000000
     atom    8 type  1   force =     0.00000000    0.00000000    0.00000000
     atom    9 type  2   force =     0.00079470    0.00000000    0.00014697
     atom   10 type  2   force =     0.00079470    0.00000000   -0.00014697
     atom   11 type  2   force =    -0.00079470    0.00000000   -0.00014697
     atom   12 type  2   force =    -0.00079470    0.00000000    0.00014697
     atom   13 type  3   force =     0.00622831    0.01307858   -0.00835449
     atom   14 type  3   force =     0.00622831   -0.01307858    0.00835449
     atom   15 type  3   force =    -0.00622831    0.01307858    0.00835449
     atom   16 type  3   force =    -0.00622831   -0.01307858   -0.00835449
     atom   17 type  3   force =    -0.00622831   -0.01307858    0.00835449
     atom   18 type  3   force =    -0.00622831    0.01307858   -0.00835449
     atom   19 type  3   force =     0.00622831   -0.01307858   -0.00835449
     atom   20 type  3   force =     0.00622831    0.01307858    0.00835449
     atom   21 type  3   force =    -0.00688217   -0.00000000   -0.01563908
     atom   22 type  3   force =    -0.00688217   -0.00000000    0.01563908
     atom   23 type  3   force =     0.00688217    0.00000000    0.01563908
     atom   24 type  3   force =     0.00688217    0.00000000   -0.01563908
     atom   25 type  3   force =    -0.01743289    0.00000000   -0.00006920
     atom   26 type  3   force =    -0.01743289    0.00000000    0.00006920
     atom   27 type  3   force =     0.01743289    0.00000000    0.00006920
     atom   28 type  3   force =     0.01743289    0.00000000   -0.00006920

     Total force =     0.068019     Total SCF correction =     0.000090


     Computing stress (Cartesian axis) and pressure

          total   stress  (Ry/bohr**3)                   (kbar)     P=       28.48
   0.00020270   0.00000000   0.00000000           29.82        0.00        0.00
   0.00000000   0.00019047   0.00000000            0.00       28.02        0.00
   0.00000000   0.00000000   0.00018760            0.00        0.00       27.60


     BFGS Geometry Optimization
     Energy error            =      0.0E+00
     Gradient error          =      1.7E-02
     Cell gradient error     =      2.0E-04


     number of scf cycles    =   1
     number of bfgs steps    =   0

     enthalpy new            =   -1925.7399640935 Ry

     new trust radius        =       0.0517341359 bohr
     new conv_thr            =       0.0000000100 Ry

     new unit-cell volume =   2643.72700 a.u.^3 (   391.75992 Ang^3 )
     density =      2.92022 g/cm^3

CELL_PARAMETERS (angstrom)
   5.112894950   0.000000000   0.000000000
  -0.000000000   6.786707776   0.000000000
   0.000000000   0.000000000  11.290001143

ATOMIC_POSITIONS (angstrom)
Ca            2.5079983697        5.0900308320        8.8123059513
Ca            5.0644458447        1.6966769440        8.1226957626
Ca            2.6048965804        1.6966769440        2.4776951913
Ca            0.0484491054        5.0900308320        3.1673053800
Ca            2.5564474751        3.3933538880        5.6450005713
Ca            0.0000000000        3.3933538880        0.0000000000
Ca            2.5564474751        0.0000000000        5.6450005713
Ca            0.0000000000        0.0000000000        0.0000000000
Si            4.7414133613        5.0900308320        6.7314656157
Si            2.1849658862        1.6966769440       10.2035360982
Si            0.3714815888        1.6966769440        4.5585355269
Si            2.9279290639        5.0900308320        1.0864650444
O             1.0414412130        3.0240527187        3.8117272237
O             3.5978886880        3.7626550572        1.8332733476
O             4.0714537371        6.4174066067        7.4782739189
O             1.5150062621        0.3693011692        9.4567277950
O             4.0714537371        3.7626550572        7.4782739189
O             1.5150062621        3.0240527187        9.4567277950
O             1.0414412130        0.3693011692        3.8117272237
O             3.5978886880        6.4174066067        1.8332733476
O             4.0756147791        5.0900308320        5.1954542670
O             1.5191673040        1.6966769440        0.4495463043
O             1.0372801710        1.6966769440        6.0945468756
O             3.5937276461        5.0900308320       10.8404548383
O             1.2844864608        5.0900308320        1.0490740358
O             3.8409339358        1.6966769440        4.5959265355
O             3.8284084893        1.6966769440       10.2409271068
O             1.2719610143        5.0900308320        6.6940746071



     Writing output data file ./out/Ca2O4Si.save/
     NEW-OLD atomic charge density approx. for the potential

     Check: negative core charge=   -0.000003
     extrapolated charge  194.76033, renormalised to  192.00000

     total cpu time spent up to now is    10499.9 secs

     Self-consistent Calculation

     iteration #  1     ecut=    50.00 Ry     beta= 0.30
     Davidson diagonalization with overlap
     c_bands:  1 eigenvalues not converged
     c_bands:  2 eigenvalues not converged
     c_bands:  1 eigenvalues not converged
     c_bands:  2 eigenvalues not converged
     c_bands:  2 eigenvalues not converged
     c_bands:  1 eigenvalues not converged
     c_bands:  1 eigenvalues not converged
     c_bands:  1 eigenvalues not converged
     c_bands:  1 eigenvalues not converged
     c_bands:  1 eigenvalues not converged
     ethr =  1.00E-06,  avg # of iterations = 19.8

     total cpu time spent up to now is    12290.8 secs

     total energy              =   -1925.62921665 Ry
     estimated scf accuracy    <       0.11542678 Ry

     iteration #  2     ecut=    50.00 Ry     beta= 0.30
     Davidson diagonalization with overlap
     ethr =  6.01E-05,  avg # of iterations =  3.2

     total cpu time spent up to now is    12902.9 secs

     total energy              =   -1925.75130994 Ry
     estimated scf accuracy    <       0.07045273 Ry

     iteration #  3     ecut=    50.00 Ry     beta= 0.30
     Davidson diagonalization with overlap
     ethr =  3.67E-05,  avg # of iterations =  2.0

     total cpu time spent up to now is    13283.8 secs

     total energy              =   -1925.73168766 Ry
     estimated scf accuracy    <       0.03727835 Ry

     iteration #  4     ecut=    50.00 Ry     beta= 0.30
     Davidson diagonalization with overlap
     ethr =  1.94E-05,  avg # of iterations =  3.2

     total cpu time spent up to now is    13742.8 secs

     total energy              =   -1925.74480668 Ry
     estimated scf accuracy    <       0.00157830 Ry

     iteration #  5     ecut=    50.00 Ry     beta= 0.30
     Davidson diagonalization with overlap
     c_bands:  1 eigenvalues not converged
     c_bands:  1 eigenvalues not converged
     c_bands:  2 eigenvalues not converged
     ethr =  8.22E-07,  avg # of iterations = 16.3

     total cpu time spent up to now is    14730.0 secs

     total energy              =   -1925.74535025 Ry
     estimated scf accuracy    <       0.00550959 Ry

     iteration #  6     ecut=    50.00 Ry     beta= 0.30
     Davidson diagonalization with overlap
     ethr =  8.22E-07,  avg # of iterations =  2.3

     total cpu time spent up to now is    15158.9 secs

     total energy              =   -1925.74505603 Ry
     estimated scf accuracy    <       0.00107466 Ry

     iteration #  7     ecut=    50.00 Ry     beta= 0.30
     Davidson diagonalization with overlap
     ethr =  5.60E-07,  avg # of iterations =  4.2

     total cpu time spent up to now is    15719.0 secs

     total energy              =   -1925.74550833 Ry
     estimated scf accuracy    <       0.00009224 Ry

     iteration #  8     ecut=    50.00 Ry     beta= 0.30
     Davidson diagonalization with overlap
     ethr =  4.80E-08,  avg # of iterations =  5.3

     total cpu time spent up to now is    16183.5 secs

     total energy              =   -1925.74552592 Ry
     estimated scf accuracy    <       0.00004404 Ry

     iteration #  9     ecut=    50.00 Ry     beta= 0.30
     Davidson diagonalization with overlap
     ethr =  2.29E-08,  avg # of iterations =  2.0

     total cpu time spent up to now is    16545.5 secs

     total energy              =   -1925.74552030 Ry
     estimated scf accuracy    <       0.00002764 Ry

     iteration # 10     ecut=    50.00 Ry     beta= 0.30
     Davidson diagonalization with overlap
     ethr =  1.44E-08,  avg # of iterations =  2.0

     total cpu time spent up to now is    16947.4 secs

     total energy              =   -1925.74552019 Ry
     estimated scf accuracy    <       0.00000967 Ry

     iteration # 11     ecut=    50.00 Ry     beta= 0.30
     Davidson diagonalization with overlap
     ethr =  5.04E-09,  avg # of iterations =  6.1

     total cpu time spent up to now is    17743.0 secs

     total energy              =   -1925.74553190 Ry
     estimated scf accuracy    <       0.00011445 Ry

     iteration # 12     ecut=    50.00 Ry     beta= 0.30
     Davidson diagonalization with overlap
     ethr =  5.04E-09,  avg # of iterations =  2.0

     total cpu time spent up to now is    18170.9 secs

     total energy              =   -1925.74552151 Ry
     estimated scf accuracy    <       0.00005284 Ry

     iteration # 13     ecut=    50.00 Ry     beta= 0.30
     Davidson diagonalization with overlap
     ethr =  5.04E-09,  avg # of iterations =  4.2

     total cpu time spent up to now is    18729.4 secs

     total energy              =   -1925.74552226 Ry
     estimated scf accuracy    <       0.00001241 Ry

     iteration # 14     ecut=    50.00 Ry     beta= 0.30
     Davidson diagonalization with overlap
     ethr =  5.04E-09,  avg # of iterations =  2.0

     total cpu time spent up to now is    19107.4 secs

     total energy              =   -1925.74552137 Ry
     estimated scf accuracy    <       0.00000410 Ry

     iteration # 15     ecut=    50.00 Ry     beta= 0.30
     Davidson diagonalization with overlap
     ethr =  2.14E-09,  avg # of iterations =  5.9

     total cpu time spent up to now is    19598.9 secs

     total energy              =   -1925.74552249 Ry
     estimated scf accuracy    <       0.00000012 Ry

     iteration # 16     ecut=    50.00 Ry     beta= 0.30
     Davidson diagonalization with overlap
     ethr =  6.39E-11,  avg # of iterations =  9.4

     total cpu time spent up to now is    20568.9 secs

     total energy              =   -1925.74552294 Ry
     estimated scf accuracy    <       0.00000004 Ry

     iteration # 17     ecut=    50.00 Ry     beta= 0.30
     Davidson diagonalization with overlap
     ethr =  2.07E-11,  avg # of iterations =  2.6

     total cpu time spent up to now is    20976.9 secs

     total energy              =   -1925.74552294 Ry
     estimated scf accuracy    <       0.00000001 Ry

     iteration # 18     ecut=    50.00 Ry     beta= 0.30
     Davidson diagonalization with overlap
     ethr =  5.50E-12,  avg # of iterations =  6.0

     total cpu time spent up to now is    21736.6 secs

     total energy              =   -1925.74552294 Ry
     estimated scf accuracy    <       0.00000003 Ry

     iteration # 19     ecut=    50.00 Ry     beta= 0.30
     Davidson diagonalization with overlap
     ethr =  5.50E-12,  avg # of iterations =  6.0

     total cpu time spent up to now is    22471.7 secs

     total energy              =   -1925.74552296 Ry
     estimated scf accuracy    <       0.00000001 Ry

     iteration # 20     ecut=    50.00 Ry     beta= 0.30
     Davidson diagonalization with overlap
     ethr =  5.50E-12,  avg # of iterations =  1.0

     total cpu time spent up to now is    22792.7 secs

     total energy              =   -1925.74552295 Ry
     estimated scf accuracy    <       0.00000001 Ry

     iteration # 21     ecut=    50.00 Ry     beta= 0.30
     Davidson diagonalization with overlap
     ethr =  5.50E-12,  avg # of iterations =  2.0

     total cpu time spent up to now is    23164.3 secs

     End of self-consistent calculation

          k = 0.0000 0.0000 0.0000 ( 15515 PWs)   bands (ev):

   -32.2433 -32.2401 -32.2037 -32.2037 -32.1700 -32.1666 -32.1653 -32.1652
   -14.2146 -14.1460 -13.7782 -13.7068 -13.6600 -13.6459 -13.6417 -13.5412
   -13.4530 -13.4363 -13.4272 -13.3999 -13.3227 -13.3065 -13.2882 -13.2745
   -13.2740 -13.2290 -13.2218 -13.2073 -13.1883 -13.1744 -13.1677 -13.1549
   -12.3620 -11.8650 -11.5102 -11.4398 -11.1051 -11.0012 -10.7461 -10.6968
   -10.6815 -10.6236 -10.5663 -10.4711 -10.4562 -10.4491 -10.3202 -10.2401
    -0.0216   0.0951   0.2737   0.3069   1.1876   1.3107   1.7117   1.7332
     1.8462   1.9098   1.9403   1.9793   2.0506   2.4254   2.4988   2.6955
     3.3511   3.4048   3.4486   3.4749   3.5021   3.6444   3.6689   3.7414
     3.7936   3.7994   3.8192   3.8538   3.8621   3.8880   4.1408   4.2172
     4.3301   4.4014   4.4389   4.4638   4.4816   4.5102   4.5272   4.5755
     4.5868   4.7417   4.8182   4.8776   4.9341   5.0441   5.1866   5.1938
     9.5630  10.6877  11.1639  11.2828  11.3777  11.4296  11.8445  11.8747
    11.9962  12.2767  12.4159  12.4385  12.4977  12.5499  12.6207  12.6994
    12.9000  12.9405  13.0308

          k = 0.0000 0.0000 0.1126 ( 15518 PWs)   bands (ev):

   -32.2428 -32.2406 -32.2037 -32.2037 -32.1695 -32.1671 -32.1652 -32.1652
   -14.2052 -14.1567 -13.7688 -13.7023 -13.6970 -13.6531 -13.6311 -13.5224
   -13.4962 -13.4019 -13.3807 -13.3547 -13.3378 -13.3084 -13.2931 -13.2752
   -13.2735 -13.2458 -13.2339 -13.2308 -13.2045 -13.1782 -13.1703 -13.1571
   -12.2898 -11.9504 -11.4859 -11.4449 -11.0721 -10.9912 -10.7756 -10.7336
   -10.6767 -10.5885 -10.5572 -10.5415 -10.4447 -10.3683 -10.3398 -10.2555
    -0.0025   0.0808   0.2764   0.2990   1.2107   1.2985   1.7405   1.7486
     1.8274   1.8758   1.8810   1.9225   2.1609   2.4478   2.4833   2.6668
     3.3491   3.3887   3.4715   3.4858   3.5263   3.6260   3.6481   3.6988
     3.7858   3.8373   3.8553   3.8565   3.8673   3.9868   4.0759   4.2420
     4.3363   4.3701   4.4316   4.4584   4.4612   4.5043   4.5557   4.5609
     4.6546   4.7052   4.7937   4.8377   4.9679   5.0707   5.1476   5.1765
     9.6977  10.4501  11.2053  11.3751  11.4264  11.4778  11.7700  11.9445
    12.0186  12.0780  12.3301  12.4430  12.4591  12.5853  12.6348  12.8349
    12.8702  13.0342  13.0724

          k = 0.0000 0.0000-0.2253 ( 15532 PWs)   bands (ev):

   -32.2417 -32.2417 -32.2037 -32.2037 -32.1683 -32.1683 -32.1652 -32.1652
   -14.1816 -14.1816 -13.7405 -13.7405 -13.6840 -13.6840 -13.5882 -13.5882
   -13.4105 -13.4105 -13.3447 -13.3447 -13.3120 -13.3120 -13.2883 -13.2883
   -13.2742 -13.2742 -13.2659 -13.2659 -13.1951 -13.1951 -13.1629 -13.1629
   -12.1245 -12.1245 -11.4589 -11.4589 -11.0073 -11.0073 -10.7897 -10.7897
   -10.6210 -10.6210 -10.5586 -10.5586 -10.3894 -10.3894 -10.2999 -10.2999
     0.0415   0.0415   0.2852   0.2852   1.2601   1.2601   1.7856   1.7856
     1.8198   1.8198   1.8479   1.8479   2.3188   2.3188   2.5874   2.5874
     3.3602   3.3602   3.5004   3.5004   3.5773   3.5773   3.6406   3.6406
     3.8253   3.8253   3.8535   3.8535   3.9705   3.9705   4.1984   4.1984
     4.3058   4.3058   4.4258   4.4258   4.4845   4.4845   4.5691   4.5691
     4.7330   4.7330   4.7443   4.7443   5.0568   5.0568   5.1271   5.1271
    10.0398  10.0398  11.3112  11.3112  11.5720  11.5720  11.7440  11.7440
    12.0557  12.0557  12.3226  12.3226  12.5364  12.5364  12.7200  12.7200
    13.1060  13.1309  13.1548

          k = 0.0000 0.1874 0.0000 ( 15551 PWs)   bands (ev):

   -32.2377 -32.2348 -32.2099 -32.2091 -32.1693 -32.1662 -32.1659 -32.1651
   -14.1406 -14.0607 -13.7830 -13.7369 -13.6645 -13.5946 -13.5726 -13.5509
   -13.5446 -13.4864 -13.4627 -13.3968 -13.3469 -13.3344 -13.3338 -13.2995
   -13.2824 -13.2480 -13.2400 -13.2382 -13.2035 -13.1929 -13.1836 -13.1790
   -12.1416 -11.7725 -11.5208 -11.5095 -11.0272 -10.9320 -10.7241 -10.6797
   -10.6659 -10.6148 -10.6000 -10.4965 -10.4885 -10.4759 -10.3585 -10.3303
     0.0290   0.1409   0.2402   0.2939   1.2936   1.4083   1.6724   1.7940
     1.8664   1.8908   1.9112   1.9808   2.2363   2.4112   2.4503   2.5665
     3.2672   3.3065   3.3712   3.4184   3.5252   3.5954   3.6097   3.7283
     3.7341   3.7363   3.7566   3.9695   4.0191   4.1122   4.1572   4.1868
     4.2903   4.3224   4.4034   4.4042   4.4577   4.5455   4.5678   4.6393
     4.6452   4.6554   4.7867   4.8070   4.9038   5.0236   5.1482   5.1806
     9.9204  10.8857  11.2961  11.4518  11.5224  11.5470  11.5737  12.0116
    12.1035  12.2287  12.2421  12.4165  12.5308  12.5398  12.6700  12.7954
    12.7974  12.8896  12.9854

          k = 0.0000 0.1874 0.1126 ( 15551 PWs)   bands (ev):

   -32.2373 -32.2352 -32.2098 -32.2092 -32.1688 -32.1667 -32.1657 -32.1652
   -14.1299 -14.0735 -13.7721 -13.7377 -13.6658 -13.6226 -13.5866 -13.5805
   -13.4973 -13.4655 -13.4328 -13.3887 -13.3583 -13.3564 -13.3228 -13.3168
   -13.2758 -13.2514 -13.2403 -13.2347 -13.2182 -13.1934 -13.1822 -13.1779
   -12.0936 -11.8392 -11.5161 -11.5030 -10.9982 -10.9285 -10.7244 -10.7078
   -10.6860 -10.6064 -10.5798 -10.5375 -10.4687 -10.4290 -10.3735 -10.3411
     0.0465   0.1262   0.2468   0.2842   1.3135   1.3953   1.6895   1.7738
     1.8325   1.8581   1.9845   2.0133   2.1819   2.3398   2.4949   2.5721
     3.2923   3.3032   3.3873   3.4363   3.4886   3.6062   3.6642   3.6937
     3.7101   3.7510   3.8107   3.9725   4.0235   4.0711   4.1211   4.2349
     4.2723   4.3613   4.3758   4.4158   4.4472   4.5251   4.5320   4.6024
     4.6724   4.6857   4.7875   4.7884   4.9397   5.0527   5.1117   5.1635
    10.0320  10.6784  11.3806  11.4792  11.5199  11.5508  11.6580  12.0654
    12.0782  12.1235  12.2506  12.3548  12.4746  12.6023  12.6250  12.7184
    12.8183  12.9729  13.0517

          k = 0.0000 0.1874-0.2253 ( 15568 PWs)   bands (ev):

   -32.2363 -32.2363 -32.2095 -32.2095 -32.1677 -32.1677 -32.1655 -32.1655
   -14.1028 -14.1028 -13.7493 -13.7493 -13.6559 -13.6559 -13.5969 -13.5969
   -13.4451 -13.4451 -13.4068 -13.4068 -13.3666 -13.3666 -13.3296 -13.3296
   -13.2646 -13.2646 -13.2303 -13.2303 -13.2183 -13.2183 -13.1772 -13.1772
   -11.9738 -11.9738 -11.5060 -11.5060 -10.9448 -10.9448 -10.7422 -10.7422
   -10.6446 -10.6446 -10.5560 -10.5560 -10.4263 -10.4263 -10.3703 -10.3703
     0.0877   0.0877   0.2641   0.2641   1.3579   1.3579   1.7307   1.7307
     1.8270   1.8270   2.0369   2.0369   2.2054   2.2054   2.5514   2.5514
     3.3013   3.3013   3.4287   3.4287   3.5300   3.5300   3.6899   3.6899
     3.7425   3.7425   3.9305   3.9305   4.0201   4.0201   4.1447   4.1447
     4.3306   4.3306   4.4111   4.4111   4.4681   4.4681   4.5534   4.5534
     4.6956   4.6956   4.7754   4.7754   5.0270   5.0270   5.1130   5.1130
    10.3222  10.3222  11.4631  11.4631  11.5791  11.5791  11.7973  11.7973
    12.1371  12.1371  12.2886  12.2886  12.4884  12.4885  12.6708  12.6708
    12.9723  12.9733  13.1034

          k = 0.0000-0.3748 0.0000 ( 15580 PWs)   bands (ev):

   -32.2241 -32.2241 -32.2220 -32.2220 -32.1675 -32.1675 -32.1655 -32.1655
   -13.9597 -13.9597 -13.8344 -13.8344 -13.6279 -13.6279 -13.5548 -13.5548
   -13.5373 -13.5373 -13.4750 -13.4750 -13.3974 -13.3974 -13.3279 -13.3279
   -13.2680 -13.2680 -13.2519 -13.2519 -13.2069 -13.2069 -13.1877 -13.1877
   -11.7768 -11.7768 -11.5999 -11.5999 -10.8592 -10.8592 -10.7709 -10.7709
   -10.5736 -10.5736 -10.5120 -10.5120 -10.5045 -10.5045 -10.4910 -10.4910
     0.1428   0.1428   0.2338   0.2338   1.5113   1.5113   1.6267   1.6267
     1.8715   1.8715   2.1661   2.1661   2.2442   2.2442   2.4158   2.4158
     3.2274   3.2274   3.3625   3.3625   3.4165   3.4165   3.7338   3.7338
     3.7396   3.7396   3.8769   3.8769   4.1118   4.1118   4.1918   4.1918
     4.2751   4.2751   4.3731   4.3731   4.5309   4.5309   4.6012   4.6012
     4.6341   4.6341   4.7335   4.7335   4.9871   4.9871   5.1251   5.1251
    10.7283  10.7283  11.2427  11.2427  11.7538  11.7538  12.0144  12.0144
    12.0884  12.0884  12.3231  12.3231  12.5150  12.5150  12.5785  12.5785
    12.9475  12.9476  12.9897

          k = 0.0000-0.3748 0.1126 ( 15550 PWs)   bands (ev):

   -32.2238 -32.2238 -32.2223 -32.2223 -32.1672 -32.1672 -32.1657 -32.1657
   -13.9451 -13.9451 -13.8585 -13.8585 -13.6149 -13.6149 -13.5652 -13.5652
   -13.5251 -13.5251 -13.4816 -13.4816 -13.3886 -13.3886 -13.3437 -13.3437
   -13.2587 -13.2587 -13.2524 -13.2524 -13.2049 -13.2049 -13.1898 -13.1898
   -11.7542 -11.7542 -11.6300 -11.6300 -10.8395 -10.8395 -10.7782 -10.7782
   -10.5703 -10.5703 -10.5294 -10.5294 -10.4995 -10.4995 -10.4871 -10.4871
     0.1560   0.1560   0.2203   0.2203   1.5288   1.5288   1.6108   1.6108
     1.8983   1.8983   2.0872   2.0872   2.2951   2.2951   2.3988   2.3988
     3.2578   3.2578   3.3447   3.3447   3.4650   3.4650   3.7134   3.7134
     3.7417   3.7417   3.8226   3.8226   4.1449   4.1449   4.1896   4.1896
     4.2850   4.2850   4.3597   4.3597   4.5261   4.5261   4.6070   4.6070
     4.6421   4.6421   4.7266   4.7266   5.0056   5.0056   5.1039   5.1039
    10.7940  10.7940  11.1619  11.1619  11.7628  11.7628  12.0062  12.0062
    12.1793  12.1793  12.2877  12.2878  12.5111  12.5112  12.5871  12.5871
    12.9036  12.9104  12.9307

          k = 0.0000-0.3748-0.2253 ( 15560 PWs)   bands (ev):

   -32.2230 -32.2230 -32.2230 -32.2230 -32.1665 -32.1665 -32.1665 -32.1665
   -13.9060 -13.9060 -13.9060 -13.9060 -13.5893 -13.5893 -13.5893 -13.5893
   -13.5003 -13.5003 -13.5003 -13.5003 -13.3687 -13.3687 -13.3687 -13.3687
   -13.2526 -13.2526 -13.2526 -13.2526 -13.1971 -13.1971 -13.1971 -13.1971
   -11.6958 -11.6958 -11.6958 -11.6958 -10.8027 -10.8027 -10.8027 -10.8027
   -10.5554 -10.5554 -10.5554 -10.5554 -10.4904 -10.4904 -10.4904 -10.4904
     0.1880   0.1880   0.1880   0.1880   1.5704   1.5704   1.5704   1.5704
     1.9768   1.9768   1.9768   1.9768   2.3545   2.3545   2.3545   2.3545
     3.3053   3.3053   3.3053   3.3053   3.5978   3.5978   3.5978   3.5978
     3.7661   3.7661   3.7661   3.7661   4.1788   4.1788   4.1788   4.1788
     4.3226   4.3226   4.3226   4.3226   4.5543   4.5543   4.5543   4.5543
     4.6969   4.6969   4.6969   4.6969   5.0535   5.0535   5.0535   5.0535
    10.9665  10.9665  10.9665  10.9665  11.8958  11.8958  11.8958  11.8958
    12.2367  12.2367  12.2367  12.2367  12.5907  12.5907  12.5907  12.5908
    12.8364  12.8366  12.8366

          k = 0.2487 0.0000 0.0000 ( 15580 PWs)   bands (ev):

   -32.2424 -32.2401 -32.2037 -32.2037 -32.1692 -32.1667 -32.1659 -32.1656
   -14.1643 -14.1441 -13.8173 -13.7538 -13.7076 -13.6181 -13.5866 -13.5601
   -13.4825 -13.4073 -13.4004 -13.3831 -13.3584 -13.3094 -13.2834 -13.2830
   -13.2668 -13.2431 -13.2271 -13.2206 -13.2136 -13.1792 -13.1685 -13.1682
   -12.0554 -11.8729 -11.7410 -11.6385 -10.8932 -10.8464 -10.8013 -10.7229
   -10.6811 -10.6646 -10.6533 -10.4783 -10.4267 -10.3838 -10.3528 -10.2742
     0.0514   0.1316   0.1372   0.1828   1.5067   1.7313   1.8090   1.8469
     1.8695   2.0008   2.0149   2.0487   2.1325   2.3414   2.3768   2.5182
     3.0900   3.1323   3.1704   3.3340   3.5171   3.5191   3.6429   3.6699
     3.7425   3.7480   3.8245   3.9049   3.9110   3.9237   4.1212   4.2011
     4.2544   4.3018   4.3600   4.3768   4.5021   4.6357   4.6581   4.6831
     4.7984   4.8423   4.8685   4.8734   4.9809   4.9940   5.2334   5.2945
    10.0474  10.7878  11.3265  11.4566  11.5857  11.6177  11.7742  11.9201
    11.9462  12.3026  12.4129  12.5728  12.6120  12.6465  12.7387  12.7924
    12.8280  13.0442  13.1318

          k = 0.2487 0.0000 0.1126 ( 15570 PWs)   bands (ev):

   -32.2421 -32.2405 -32.2037 -32.2037 -32.1689 -32.1671 -32.1658 -32.1656
   -14.1623 -14.1470 -13.8106 -13.7599 -13.6970 -13.6277 -13.6060 -13.5209
   -13.5116 -13.4188 -13.4009 -13.3586 -13.3384 -13.3128 -13.2894 -13.2820
   -13.2698 -13.2554 -13.2435 -13.2140 -13.2029 -13.1917 -13.1665 -13.1612
   -12.0235 -11.8905 -11.7352 -11.6680 -10.8743 -10.8263 -10.7921 -10.7504
   -10.6861 -10.6692 -10.6373 -10.5300 -10.3787 -10.3782 -10.3572 -10.2869
     0.0640   0.1206   0.1432   0.1751   1.5301   1.6772   1.8351   1.8677
     1.9052   1.9507   1.9973   2.0333   2.1588   2.3401   2.3843   2.5023
     3.0909   3.1267   3.1884   3.3023   3.5300   3.5406   3.6573   3.6840
     3.7579   3.7681   3.8260   3.8873   3.8893   3.9114   4.1088   4.1428
     4.2955   4.3229   4.3743   4.3775   4.5132   4.6478   4.6675   4.6685
     4.7998   4.8253   4.8390   4.8564   5.0022   5.0069   5.2319   5.2780
    10.1352  10.6347  11.3879  11.5300  11.5965  11.6727  11.7732  11.8760
    11.9407  12.1632  12.3880  12.4921  12.7145  12.7199  12.7958  12.8270
    12.8435  13.0192  13.0301

          k = 0.2487 0.0000-0.2253 ( 15582 PWs)   bands (ev):

   -32.2413 -32.2413 -32.2037 -32.2037 -32.1680 -32.1680 -32.1657 -32.1657
   -14.1551 -14.1551 -13.7856 -13.7856 -13.6686 -13.6686 -13.5716 -13.5716
   -13.4508 -13.4508 -13.3884 -13.3884 -13.3026 -13.3026 -13.2963 -13.2963
   -13.2665 -13.2665 -13.2239 -13.2239 -13.2053 -13.2053 -13.1612 -13.1612
   -11.9499 -11.9499 -11.7129 -11.7129 -10.8327 -10.8327 -10.7739 -10.7739
   -10.6874 -10.6874 -10.5928 -10.5928 -10.3676 -10.3676 -10.3233 -10.3233
     0.0933   0.0933   0.1581   0.1581   1.5929   1.5929   1.9060   1.9060
     1.9105   1.9105   1.9678   1.9678   2.2524   2.2524   2.4543   2.4543
     3.1059   3.1059   3.2390   3.2390   3.5507   3.5507   3.6846   3.6846
     3.8124   3.8124   3.8204   3.8204   3.8823   3.8823   4.1034   4.1034
     4.3385   4.3385   4.3608   4.3608   4.5979   4.5979   4.6709   4.6709
     4.8094   4.8094   4.8225   4.8225   5.0190   5.0190   5.2457   5.2457
    10.3613  10.3613  11.5000  11.5000  11.6652  11.6652  11.8983  11.8983
    11.9124  11.9124  12.4077  12.4077  12.7946  12.7947  12.8515  12.8529
    12.9229  12.9245  13.0026

          k = 0.2487 0.1874 0.0000 ( 15539 PWs)   bands (ev):

   -32.2369 -32.2348 -32.2096 -32.2091 -32.1687 -32.1664 -32.1661 -32.1658
   -14.0916 -14.0700 -13.7905 -13.7258 -13.7100 -13.6362 -13.6293 -13.5378
   -13.5131 -13.4671 -13.4474 -13.4028 -13.3818 -13.3481 -13.3171 -13.2935
   -13.2834 -13.2462 -13.2373 -13.2317 -13.1980 -13.1900 -13.1817 -13.1781
   -11.9158 -11.8024 -11.6999 -11.6132 -10.8830 -10.8300 -10.8106 -10.7257
   -10.6837 -10.6764 -10.6300 -10.4856 -10.4520 -10.4005 -10.4002 -10.3315
     0.0757   0.1386   0.1589   0.1950   1.5875   1.7491   1.8252   1.8551
     1.9427   1.9653   1.9726   2.0660   2.2571   2.2586   2.3968   2.4546
     3.1105   3.1464   3.2645   3.3151   3.4232   3.4899   3.5047   3.6124
     3.6412   3.7382   3.8473   3.8501   3.9965   4.0009   4.1462   4.1632
     4.2304   4.3271   4.3405   4.3996   4.5034   4.6189   4.6652   4.7004
     4.8026   4.8147   4.8725   4.9185   4.9337   4.9772   5.1908   5.2136
    10.3146  10.9719  11.4047  11.6479  11.6701  11.7289  11.7648  11.9185
    12.0208  12.2952  12.3416  12.5260  12.5561  12.6204  12.7105  12.7895
    12.8585  12.9052  13.0335

          k = 0.2487 0.1874 0.1126 ( 15555 PWs)   bands (ev):

   -32.2366 -32.2352 -32.2096 -32.2092 -32.1683 -32.1667 -32.1660 -32.1658
   -14.0885 -14.0714 -13.7897 -13.7395 -13.6901 -13.6452 -13.6244 -13.5765
   -13.5051 -13.4640 -13.4132 -13.4029 -13.3747 -13.3547 -13.3232 -13.2986
   -13.2739 -13.2438 -13.2377 -13.2265 -13.2067 -13.1981 -13.1827 -13.1783
   -11.8940 -11.8111 -11.6955 -11.6378 -10.8683 -10.8326 -10.7931 -10.7587
   -10.6816 -10.6652 -10.6148 -10.5239 -10.4266 -10.4058 -10.3905 -10.3404
     0.0882   0.1448   0.1483   0.1858   1.6095   1.7296   1.8186   1.8663
     1.8994   1.9865   2.0164   2.0693   2.1911   2.2713   2.4033   2.4559
     3.1204   3.1424   3.2599   3.2987   3.4444   3.4862   3.5593   3.6252
     3.6722   3.7270   3.7859   3.8914   3.9229   3.9884   4.1458   4.1744
     4.2307   4.3265   4.3415   4.3853   4.5431   4.6418   4.6572   4.7067
     4.7987   4.8008   4.8714   4.8827   4.9671   4.9935   5.1795   5.1999
    10.3916  10.8375  11.4907  11.6224  11.6635  11.7509  11.8237  11.9389
    12.0156  12.1377  12.4020  12.4888  12.5581  12.6270  12.6913  12.8152
    12.8894  12.9565  13.0405

          k = 0.2487 0.1874-0.2253 ( 15554 PWs)   bands (ev):

   -32.2359 -32.2359 -32.2094 -32.2094 -32.1676 -32.1676 -32.1659 -32.1659
   -14.0792 -14.0792 -13.7689 -13.7689 -13.6666 -13.6666 -13.6070 -13.6070
   -13.4848 -13.4848 -13.4006 -13.4006 -13.3467 -13.3467 -13.3267 -13.3267
   -13.2546 -13.2546 -13.2276 -13.2276 -13.2107 -13.2107 -13.1818 -13.1818
   -11.8456 -11.8456 -11.6769 -11.6769 -10.8403 -10.8403 -10.7839 -10.7839
   -10.6712 -10.6712 -10.5744 -10.5744 -10.4131 -10.4131 -10.3640 -10.3640
     0.1179   0.1179   0.1651   0.1651   1.6653   1.6653   1.8539   1.8539
     1.9169   1.9169   2.0839   2.0839   2.1939   2.1939   2.4382   2.4382
     3.1330   3.1330   3.2708   3.2708   3.4793   3.4793   3.6427   3.6427
     3.6821   3.6821   3.8148   3.8148   3.9338   3.9338   4.1561   4.1561
     4.2775   4.2775   4.3644   4.3644   4.6164   4.6164   4.6883   4.6883
     4.7953   4.7953   4.8613   4.8613   4.9997   4.9997   5.1757   5.1757
    10.5932  10.5932  11.5845  11.5845  11.7218  11.7218  11.9215  11.9216
    12.0165  12.0165  12.3968  12.3968  12.6043  12.6044  12.7943  12.7943
    12.9846  12.9996  13.0328

          k = 0.2487-0.3748 0.0000 ( 15570 PWs)   bands (ev):

   -32.2235 -32.2235 -32.2220 -32.2220 -32.1674 -32.1674 -32.1659 -32.1659
   -13.9532 -13.9532 -13.8159 -13.8159 -13.6285 -13.6285 -13.6129 -13.6129
   -13.5218 -13.5218 -13.4827 -13.4827 -13.4434 -13.4434 -13.2951 -13.2951
   -13.2553 -13.2553 -13.2389 -13.2389 -13.1965 -13.1965 -13.1842 -13.1842
   -11.7296 -11.7296 -11.6469 -11.6469 -10.8984 -10.8984 -10.7633 -10.7633
   -10.6232 -10.6232 -10.5590 -10.5590 -10.4561 -10.4561 -10.4285 -10.4285
     0.1198   0.1198   0.1971   0.1971   1.7164   1.7164   1.8744   1.8744
     1.9153   1.9153   2.1084   2.1084   2.2364   2.2364   2.3759   2.3759
     3.2030   3.2030   3.2825   3.2825   3.3946   3.3946   3.5027   3.5027
     3.6016   3.6016   3.8975   3.8975   3.9689   3.9689   4.1694   4.1694
     4.3028   4.3028   4.3430   4.3430   4.5564   4.5564   4.6732   4.6732
     4.8185   4.8185   4.8918   4.8918   5.0017   5.0017   5.1041   5.1041
    10.9679  10.9679  11.3275  11.3275  11.8692  11.8692  12.0996  12.0996
    12.2169  12.2170  12.3741  12.3741  12.5864  12.5865  12.6939  12.6945
    12.8086  12.8089  12.8978

          k = 0.2487-0.3748 0.1126 ( 15528 PWs)   bands (ev):

   -32.2233 -32.2233 -32.2222 -32.2222 -32.1671 -32.1671 -32.1661 -32.1661
   -13.9377 -13.9377 -13.8435 -13.8435 -13.6185 -13.6185 -13.6071 -13.6071
   -13.5332 -13.5332 -13.4960 -13.4960 -13.4078 -13.4078 -13.3109 -13.3109
   -13.2481 -13.2481 -13.2353 -13.2353 -13.1994 -13.1994 -13.1904 -13.1904
   -11.7183 -11.7183 -11.6599 -11.6599 -10.8841 -10.8841 -10.7918 -10.7918
   -10.6026 -10.6026 -10.5512 -10.5512 -10.4615 -10.4615 -10.4354 -10.4354
     0.1306   0.1306   0.1852   0.1852   1.7405   1.7405   1.8547   1.8547
     1.9266   1.9266   2.0583   2.0583   2.2757   2.2757   2.3704   2.3704
     3.2171   3.2171   3.2893   3.2893   3.3809   3.3809   3.4850   3.4850
     3.6458   3.6458   3.8272   3.8272   4.0169   4.0169   4.1442   4.1442
[...]
     3.6033   3.6033   3.7855   3.7855   3.9725   3.9725   4.1000   4.1000
     4.2535   4.2535   4.2944   4.2944   4.5456   4.5456   4.6325   4.6325
     4.7906   4.7906   4.8439   4.8439   4.9686   4.9686   5.0406   5.0406
    10.9577  10.9577  11.2171  11.2171  11.8109  11.8109  11.9884  11.9884
    12.2498  12.2498  12.2776  12.2776  12.5454  12.5454  12.6262  12.6262
    12.7100  12.7100  12.8422

          k = 0.2487-0.3742-0.2247 ( 15524 PWs)   bands (ev):

   -32.2764 -32.2764 -32.2764 -32.2764 -32.2595 -32.2595 -32.2595 -32.2595
   -13.9503 -13.9503 -13.9503 -13.9503 -13.6663 -13.6663 -13.6663 -13.6663
   -13.5713 -13.5713 -13.5713 -13.5713 -13.4252 -13.4252 -13.4252 -13.4252
   -13.3158 -13.3158 -13.3158 -13.3158 -13.2789 -13.2789 -13.2789 -13.2789
   -11.7484 -11.7484 -11.7484 -11.7484 -10.8892 -10.8892 -10.8892 -10.8892
   -10.6171 -10.6171 -10.6171 -10.6171 -10.5081 -10.5081 -10.5081 -10.5081
     0.1231   0.1231   0.1231   0.1231   1.7599   1.7599   1.7599   1.7599
     1.9362   1.9362   1.9362   1.9362   2.2909   2.2909   2.2909   2.2909
     3.2143   3.2143   3.2143   3.2143   3.3887   3.3887   3.3887   3.3887
     3.6884   3.6884   3.6884   3.6884   4.0364   4.0364   4.0364   4.0364
     4.2720   4.2720   4.2720   4.2720   4.6015   4.6015   4.6015   4.6015
     4.8185   4.8185   4.8185   4.8185   5.0021   5.0021   5.0021   5.0021
    11.0824  11.0824  11.0824  11.0824  11.8899  11.8899  11.8899  11.8899
    12.2850  12.2850  12.2850  12.2850  12.5905  12.5905  12.5905  12.5906
    12.7366  12.7366  12.7366

          k =-0.4974 0.0000 0.0000 ( 15578 PWs)   bands (ev):

   -32.2929 -32.2929 -32.2632 -32.2632 -32.2606 -32.2606 -32.2548 -32.2548
   -14.1881 -14.1881 -13.8595 -13.8595 -13.7117 -13.7117 -13.6078 -13.6078
   -13.5645 -13.5645 -13.4307 -13.4307 -13.4030 -13.4030 -13.3690 -13.3690
   -13.3296 -13.3296 -13.3188 -13.3188 -13.2732 -13.2732 -13.2304 -13.2304
   -12.0565 -12.0565 -11.5655 -11.5655 -11.1628 -11.1628 -10.8259 -10.8259
   -10.6154 -10.6154 -10.6123 -10.6123 -10.4104 -10.4104 -10.4090 -10.4090
    -0.0069  -0.0069   0.1514   0.1514   1.8577   1.8577   1.9764   1.9764
     2.0097   2.0097   2.1006   2.1006   2.2817   2.2817   2.3225   2.3225
     2.7962   2.7962   3.0182   3.0182   3.1642   3.1642   3.4328   3.4328
     3.6725   3.6725   3.8503   3.8503   3.9573   3.9573   4.1487   4.1487
     4.1593   4.1593   4.2441   4.2441   4.5785   4.5785   4.6221   4.6221
     4.8354   4.8354   4.9672   4.9672   5.0962   5.0962   5.2708   5.2708
    10.5917  10.5917  11.5481  11.5481  11.8235  11.8235  11.9820  11.9820
    12.0477  12.0477  12.5070  12.5070  12.6052  12.6052  12.7753  12.7753
    12.8233  12.8233  13.0610

          k =-0.4974 0.0000 0.1123 ( 15568 PWs)   bands (ev):

   -32.2929 -32.2929 -32.2632 -32.2632 -32.2606 -32.2606 -32.2548 -32.2548
   -14.1905 -14.1905 -13.8497 -13.8497 -13.7070 -13.7070 -13.6085 -13.6085
   -13.5698 -13.5698 -13.4658 -13.4658 -13.3957 -13.3957 -13.3737 -13.3737
   -13.3288 -13.3288 -13.2951 -13.2951 -13.2729 -13.2729 -13.2271 -13.2271
   -12.0584 -12.0584 -11.5652 -11.5652 -11.1692 -11.1692 -10.8030 -10.8030
   -10.6334 -10.6334 -10.6154 -10.6154 -10.4090 -10.4090 -10.4058 -10.4058
    -0.0070  -0.0070   0.1509   0.1509   1.8635   1.8635   1.9832   1.9832
     1.9893   1.9893   2.1398   2.1398   2.2715   2.2715   2.2940   2.2940
     2.8040   2.8040   3.0193   3.0193   3.1515   3.1515   3.4446   3.4446
     3.6817   3.6817   3.8336   3.8336   3.9946   3.9946   4.1438   4.1438
     4.1473   4.1473   4.2211   4.2211   4.5868   4.5868   4.6234   4.6234
     4.8351   4.8351   4.9713   4.9713   5.0959   5.0959   5.2664   5.2664
    10.5877  10.5877  11.5829  11.5829  11.8355  11.8355  12.0090  12.0090
    12.0348  12.0348  12.4254  12.4254  12.5882  12.5882  12.7525  12.7525
    12.8398  12.8398  13.0207

          k =-0.4974 0.0000-0.2247 ( 15564 PWs)   bands (ev):

   -32.2929 -32.2929 -32.2632 -32.2632 -32.2606 -32.2606 -32.2548 -32.2548
   -14.1929 -14.1929 -13.8395 -13.8395 -13.7006 -13.7006 -13.6094 -13.6094
   -13.5773 -13.5773 -13.4930 -13.4930 -13.3860 -13.3860 -13.3738 -13.3738
   -13.3408 -13.3408 -13.2730 -13.2730 -13.2728 -13.2728 -13.2241 -13.2241
   -12.0604 -12.0604 -11.5649 -11.5649 -11.1752 -11.1752 -10.7739 -10.7739
   -10.6606 -10.6606 -10.6154 -10.6154 -10.4090 -10.4090 -10.4015 -10.4015
    -0.0071  -0.0071   0.1505   0.1505   1.8710   1.8710   1.9712   1.9712
     1.9904   1.9904   2.2076   2.2076   2.2330   2.2330   2.2610   2.2610
     2.8116   2.8116   3.0204   3.0204   3.1410   3.1410   3.4540   3.4540
     3.6914   3.6914   3.8219   3.8219   4.0356   4.0356   4.1194   4.1194
     4.1575   4.1575   4.1871   4.1871   4.5947   4.5947   4.6248   4.6248
     4.8349   4.8349   4.9753   4.9753   5.0957   5.0957   5.2619   5.2619
    10.5839  10.5839  11.6209  11.6209  11.8506  11.8506  12.0194  12.0194
    12.0389  12.0389  12.3523  12.3523  12.5722  12.5722  12.7223  12.7223
    12.8404  12.8405  12.9904

          k =-0.4974 0.1871 0.0000 ( 15576 PWs)   bands (ev):

   -32.2878 -32.2878 -32.2653 -32.2653 -32.2605 -32.2605 -32.2579 -32.2579
   -14.1173 -14.1173 -13.8099 -13.8099 -13.7695 -13.7695 -13.6441 -13.6441
   -13.5376 -13.5376 -13.4849 -13.4849 -13.4481 -13.4481 -13.3617 -13.3617
   -13.3453 -13.3453 -13.3074 -13.3074 -13.2726 -13.2726 -13.2540 -13.2540
   -11.9551 -11.9551 -11.5982 -11.5982 -11.0757 -11.0757 -10.8386 -10.8386
   -10.6380 -10.6380 -10.6060 -10.6060 -10.4645 -10.4645 -10.4225 -10.4225
     0.0285   0.0285   0.1454   0.1454   1.8348   1.8348   1.9639   1.9639
     2.0039   2.0039   2.1374   2.1374   2.2792   2.2792   2.3608   2.3608
     2.8606   2.8606   3.0262   3.0262   3.2195   3.2195   3.3209   3.3209
     3.6023   3.6023   3.8448   3.8448   3.9844   3.9844   4.1277   4.1277
     4.1608   4.1608   4.2173   4.2173   4.6436   4.6436   4.6832   4.6832
     4.8552   4.8552   4.9473   4.9473   5.0369   5.0369   5.1645   5.1645
    10.7944  10.7944  11.5748  11.5748  11.9111  11.9111  12.0670  12.0670
    12.0843  12.0843  12.4586  12.4586  12.5489  12.5489  12.6907  12.6907
    12.8484  12.8484  12.9404

          k =-0.4974 0.1871 0.1123 ( 15578 PWs)   bands (ev):

   -32.2878 -32.2878 -32.2653 -32.2653 -32.2605 -32.2605 -32.2579 -32.2579
   -14.1187 -14.1187 -13.8001 -13.8001 -13.7602 -13.7602 -13.6704 -13.6704
   -13.5468 -13.5468 -13.4908 -13.4908 -13.4158 -13.4158 -13.3700 -13.3700
   -13.3419 -13.3419 -13.2988 -13.2988 -13.2838 -13.2838 -13.2548 -13.2548
   -11.9549 -11.9549 -11.6018 -11.6018 -11.0783 -11.0783 -10.8087 -10.8087
   -10.6743 -10.6743 -10.6038 -10.6038 -10.4536 -10.4536 -10.4238 -10.4238
     0.0291   0.0291   0.1439   0.1439   1.8502   1.8502   1.9433   1.9433
     2.0159   2.0159   2.1251   2.1251   2.2726   2.2726   2.3782   2.3782
     2.8723   2.8723   3.0209   3.0209   3.1543   3.1543   3.3917   3.3917
     3.6107   3.6107   3.8227   3.8227   3.9957   3.9957   4.1132   4.1132
     4.1496   4.1496   4.2083   4.2083   4.6591   4.6591   4.6885   4.6885
     4.8545   4.8545   4.9550   4.9550   5.0343   5.0343   5.1598   5.1598
    10.7928  10.7928  11.6193  11.6193  11.8686  11.8686  12.0681  12.0681
    12.0988  12.0988  12.4084  12.4084  12.5603  12.5603  12.6851  12.6852
    12.8255  12.8256  12.9364

          k =-0.4974 0.1871-0.2247 ( 15580 PWs)   bands (ev):

   -32.2878 -32.2878 -32.2653 -32.2653 -32.2605 -32.2605 -32.2579 -32.2579
   -14.1199 -14.1199 -13.7871 -13.7871 -13.7515 -13.7515 -13.6908 -13.6908
   -13.5772 -13.5772 -13.4623 -13.4623 -13.3973 -13.3973 -13.3877 -13.3877
   -13.3381 -13.3381 -13.2976 -13.2976 -13.2778 -13.2778 -13.2642 -13.2642
   -11.9546 -11.9546 -11.6053 -11.6053 -11.0803 -11.0803 -10.7444 -10.7444
   -10.7394 -10.7394 -10.6074 -10.6074 -10.4352 -10.4352 -10.4331 -10.4331
     0.0298   0.0298   0.1424   0.1424   1.8826   1.8826   1.9026   1.9026
     2.0639   2.0639   2.0717   2.0717   2.2850   2.2850   2.3844   2.3844
     2.8855   2.8855   3.0151   3.0151   3.1144   3.1144   3.4362   3.4362
     3.6224   3.6224   3.7994   3.7994   4.0060   4.0060   4.0958   4.0958
     4.1488   4.1488   4.1916   4.1916   4.6791   4.6791   4.6897   4.6897
     4.8527   4.8527   4.9644   4.9644   5.0304   5.0304   5.1550   5.1550
    10.7913  10.7913  11.6955  11.6955  11.7945  11.7945  12.0778  12.0778
    12.0961  12.0961  12.3883  12.3883  12.5598  12.5598  12.6576  12.6576
    12.8386  12.8386  12.9282

          k =-0.4974-0.3742 0.0000 ( 15516 PWs)   bands (ev):

   -32.2757 -32.2757 -32.2757 -32.2757 -32.2601 -32.2601 -32.2601 -32.2601
   -13.9847 -13.9847 -13.8939 -13.8939 -13.6963 -13.6963 -13.6614 -13.6614
   -13.5899 -13.5899 -13.5463 -13.5463 -13.5130 -13.5130 -13.3751 -13.3751
   -13.3174 -13.3174 -13.3171 -13.3171 -13.2600 -13.2600 -13.2586 -13.2586
   -11.7978 -11.7978 -11.6918 -11.6918 -10.9283 -10.9283 -10.9077 -10.9077
   -10.6414 -10.6414 -10.6141 -10.6141 -10.5042 -10.5042 -10.4590 -10.4590
     0.0817   0.0817   0.1214   0.1214   1.8445   1.8445   1.9015   1.9015
     2.0300   2.0300   2.1339   2.1339   2.3471   2.3471   2.3539   2.3539
     3.0432   3.0432   3.0455   3.0455   3.0990   3.0990   3.2396   3.2396
     3.5934   3.5934   3.7805   3.7805   4.0583   4.0583   4.0616   4.0616
     4.1666   4.1666   4.2114   4.2114   4.6917   4.6917   4.8333   4.8333
     4.8760   4.8760   4.9108   4.9108   4.9456   4.9456   5.0216   5.0216
    11.2571  11.2571  11.2635  11.2635  12.0731  12.0731  12.1710  12.1710
    12.2489  12.2489  12.3733  12.3734  12.4255  12.4255  12.6869  12.6869
    12.8547  12.8548  12.9083

          k =-0.4974-0.3742 0.1123 ( 15528 PWs)   bands (ev):

   -32.2757 -32.2757 -32.2757 -32.2757 -32.2601 -32.2601 -32.2601 -32.2601
   -13.9724 -13.9724 -13.9079 -13.9079 -13.6950 -13.6950 -13.6729 -13.6729
   -13.5961 -13.5961 -13.5594 -13.5594 -13.4683 -13.4683 -13.3766 -13.3766
   -13.3146 -13.3146 -13.3104 -13.3104 -13.2729 -13.2729 -13.2674 -13.2674
   -11.7843 -11.7843 -11.7097 -11.7097 -10.9159 -10.9159 -10.8983 -10.8983
   -10.6572 -10.6572 -10.6329 -10.6329 -10.4877 -10.4877 -10.4580 -10.4580
     0.0870   0.0870   0.1150   0.1150   1.8662   1.8662   1.9082   1.9082
     2.0149   2.0149   2.0757   2.0757   2.3789   2.3789   2.3880   2.3880
     3.0248   3.0248   3.0285   3.0285   3.1268   3.1268   3.2230   3.2230
     3.6264   3.6264   3.7535   3.7535   4.0556   4.0556   4.0692   4.0692
     4.1549   4.1549   4.1936   4.1936   4.7132   4.7132   4.8112   4.8112
     4.8930   4.8930   4.9150   4.9150   4.9567   4.9567   5.0137   5.0137
    11.2668  11.2668  11.2711  11.2711  12.0204  12.0204  12.0858  12.0858
    12.3259  12.3259  12.4455  12.4455  12.4470  12.4470  12.5988  12.5988
    12.7950  12.7959  12.8619

          k =-0.4974-0.3742-0.2247 ( 15576 PWs)   bands (ev):

   -32.2757 -32.2757 -32.2757 -32.2757 -32.2601 -32.2601 -32.2601 -32.2601
   -13.9412 -13.9412 -13.9412 -13.9412 -13.6885 -13.6885 -13.6885 -13.6885
   -13.5834 -13.5834 -13.5834 -13.5834 -13.4049 -13.4049 -13.4049 -13.4049
   -13.3042 -13.3042 -13.3042 -13.3042 -13.2849 -13.2849 -13.2849 -13.2849
   -11.7491 -11.7491 -11.7491 -11.7491 -10.8955 -10.8955 -10.8955 -10.8955
   -10.6618 -10.6618 -10.6618 -10.6618 -10.4655 -10.4655 -10.4655 -10.4655
     0.1004   0.1004   0.1004   0.1004   1.9076   1.9076   1.9076   1.9076
     2.0081   2.0081   2.0081   2.0081   2.4111   2.4111   2.4111   2.4111
     3.0111   3.0111   3.0111   3.0111   3.1788   3.1788   3.1788   3.1788
     3.6922   3.6922   3.6922   3.6922   4.0647   4.0647   4.0647   4.0647
     4.1602   4.1602   4.1602   4.1602   4.7618   4.7618   4.7618   4.7618
     4.9138   4.9138   4.9138   4.9138   4.9873   4.9873   4.9873   4.9873
    11.2782  11.2782  11.2782  11.2782  12.0021  12.0021  12.0021  12.0021
    12.4352  12.4352  12.4352  12.4352  12.5102  12.5102  12.5102  12.5102
    12.7773  12.7773  12.7773

     the Fermi energy is     7.5113 ev

!    total energy              =   -1925.74594501 Ry

     total all-electron energy =    -15618.847812 Ry
     estimated scf accuracy    <          8.6E-11 Ry
     smearing contrib. (-TS)   =      -0.00000000 Ry
     internal energy E=F+TS    =   -1925.74594501 Ry

     The total energy is F=E-TS. E is the sum of the following terms:
     one-electron contribution =    -400.16262018 Ry
     hartree contribution      =     301.20353536 Ry
     xc contribution           =    -243.80698067 Ry
     ewald contribution        =    -808.70007373 Ry
     one-center paw contrib.   =    -774.27980579 Ry

     convergence has been achieved in  14 iterations

     Forces acting on atoms (cartesian axes, Ry/au):

     atom    1 type  1   force =    -0.00000612    0.00000000    0.00000387
     atom    2 type  1   force =    -0.00000612    0.00000000   -0.00000387
     atom    3 type  1   force =     0.00000612   -0.00000000   -0.00000387
     atom    4 type  1   force =     0.00000612    0.00000000    0.00000387
     atom    5 type  1   force =     0.00000000    0.00000000    0.00000000
     atom    6 type  1   force =     0.00000000    0.00000000    0.00000000
     atom    7 type  1   force =     0.00000000   -0.00000000    0.00000000
     atom    8 type  1   force =    -0.00000000    0.00000000    0.00000000
     atom    9 type  2   force =     0.00002975   -0.00000000   -0.00004655
     atom   10 type  2   force =     0.00002975    0.00000000    0.00004655
     atom   11 type  2   force =    -0.00002975    0.00000000    0.00004655
     atom   12 type  2   force =    -0.00002975    0.00000000   -0.00004655
     atom   13 type  3   force =     0.00003689    0.00002317    0.00010220
     atom   14 type  3   force =     0.00003689   -0.00002317   -0.00010220
     atom   15 type  3   force =    -0.00003689    0.00002317   -0.00010220
     atom   16 type  3   force =    -0.00003689   -0.00002317    0.00010220
     atom   17 type  3   force =    -0.00003689   -0.00002317   -0.00010220
     atom   18 type  3   force =    -0.00003689    0.00002317    0.00010220
     atom   19 type  3   force =     0.00003689   -0.00002317    0.00010220
     atom   20 type  3   force =     0.00003689    0.00002317   -0.00010220
     atom   21 type  3   force =     0.00003810   -0.00000000   -0.00006134
     atom   22 type  3   force =     0.00003810   -0.00000000    0.00006134
     atom   23 type  3   force =    -0.00003810    0.00000000    0.00006134
     atom   24 type  3   force =    -0.00003810    0.00000000   -0.00006134
     atom   25 type  3   force =     0.00014772    0.00000000   -0.00002270
     atom   26 type  3   force =     0.00014772   -0.00000000    0.00002270
     atom   27 type  3   force =    -0.00014772    0.00000000    0.00002270
     atom   28 type  3   force =    -0.00014772    0.00000000   -0.00002270

     Total force =     0.000470     Total SCF correction =     0.000011


     Computing stress (Cartesian axis) and pressure

          total   stress  (Ry/bohr**3)                   (kbar)     P=       -0.02
   0.00000154   0.00000000   0.00000000            0.23        0.00        0.00
   0.00000000  -0.00000126   0.00000000            0.00       -0.18        0.00
   0.00000000   0.00000000  -0.00000060            0.00        0.00       -0.09

     Energy error            =      8.9E-07
     Gradient error          =      1.5E-04
     Cell gradient error     =      1.5E-06


     number of scf cycles    =   9
     number of bfgs steps    =   8

     enthalpy old            =   -1925.7459441287 Ry
     enthalpy new            =   -1925.7459450150 Ry

     CASE: enthalpy_new < enthalpy_old

     new trust radius        =       0.0008209822 bohr
     new conv_thr            =            1.0E-10 Ry

     new unit-cell volume =   2655.66639 a.u.^3 (   393.52916 Ang^3 )
     density =      2.90709 g/cm^3

CELL_PARAMETERS (angstrom)
   5.114398906   0.000000000   0.000000000
  -0.000000000   6.797559464   0.000000000
   0.000000000   0.000000000  11.319553644

ATOMIC_POSITIONS (angstrom)
Ca            2.5151472918        5.0981695981        8.8373561446
Ca            5.0723467448        1.6993898660        8.1419743221
Ca            2.5992516140        1.6993898660        2.4821974999
Ca            0.0420521611        5.0981695981        3.1775793223
Ca            2.5571994529        3.3987797321        5.6597768222
Ca            0.0000000000        3.3987797321        0.0000000000
Ca            2.5571994529        0.0000000000        5.6597768222
Ca           -0.0000000000        0.0000000000        0.0000000000
Si            4.7396900018        5.0981695981        6.7475000186
Si            2.1824905489        1.6993898660       10.2318304481
Si            0.3747089040        1.6993898660        4.5720536259
Si            2.9319083570        5.0981695981        1.0877231963
O             1.0434860999        3.0246529894        3.8255921119
O             3.6006855529        3.7729064747        1.8341847103
O             4.0709128059        6.4234327215        7.4939615325
O             1.5137133530        0.3741267427        9.4853689341
O             4.0709128059        3.7729064747        7.4939615325
O             1.5137133530        3.0246529894        9.4853689341
O             1.0434860999        0.3741267427        3.8255921119
O             3.6006855529        6.4234327215        1.8341847103
O             4.0713939181        5.0981695981        5.2134243947
O             1.5141944651        1.6993898660        0.4463524275
O             1.0430049878        1.6993898660        6.1061292497
O             3.6002044407        5.0981695981       10.8732012169
O             1.2905165048        5.0981695981        1.0506412606
O             3.8477159578        1.6993898660        4.6091355616
O             3.8238824010        1.6993898660       10.2689123838
O             1.2666829481        5.0981695981        6.7104180828



     Writing output data file ./out/Ca2O4Si.save/
     NEW-OLD atomic charge density approx. for the potential

     Check: negative core charge=   -0.000003
     extrapolated charge  191.98391, renormalised to  192.00000

     total cpu time spent up to now is    63471.6 secs

     Self-consistent Calculation

     iteration #  1     ecut=    50.00 Ry     beta= 0.30
     Davidson diagonalization with overlap
     ethr =  1.00E-06,  avg # of iterations =  2.0

     Threshold (ethr) on eigenvalues was too large:
     Diagonalizing with lowered threshold

     Davidson diagonalization with overlap
     ethr =  1.87E-09,  avg # of iterations =  5.5

     total cpu time spent up to now is    64236.8 secs

     total energy              =   -1925.74594229 Ry
     estimated scf accuracy    <       0.00000319 Ry

     iteration #  2     ecut=    50.00 Ry     beta= 0.30
     Davidson diagonalization with overlap
     ethr =  1.66E-09,  avg # of iterations =  3.5

     total cpu time spent up to now is    64646.6 secs

     total energy              =   -1925.74594599 Ry
     estimated scf accuracy    <       0.00000231 Ry

     iteration #  3     ecut=    50.00 Ry     beta= 0.30
     Davidson diagonalization with overlap
     ethr =  1.20E-09,  avg # of iterations =  2.0

     total cpu time spent up to now is    64897.0 secs

     total energy              =   -1925.74594554 Ry
     estimated scf accuracy    <       0.00000123 Ry

     iteration #  4     ecut=    50.00 Ry     beta= 0.30
     Davidson diagonalization with overlap
     ethr =  6.38E-10,  avg # of iterations =  2.0

     total cpu time spent up to now is    65199.7 secs

     total energy              =   -1925.74594578 Ry
     estimated scf accuracy    <       0.00000004 Ry

     iteration #  5     ecut=    50.00 Ry     beta= 0.30
     Davidson diagonalization with overlap
     ethr =  2.18E-11,  avg # of iterations =  6.1

     total cpu time spent up to now is    65772.9 secs

     total energy              =   -1925.74594582 Ry
     estimated scf accuracy    <       0.00000001 Ry

     iteration #  6     ecut=    50.00 Ry     beta= 0.30
     Davidson diagonalization with overlap
