
     Program PHONON v.6.7MaX starts on  1Jul2026 at 13:51:11 

     This program is part of the open-source Quantum ESPRESSO suite
     for quantum simulation of materials; please cite
         "P. Giannozzi et al., J. Phys.:Condens. Matter 21 395502 (2009);
         "P. Giannozzi et al., J. Phys.:Condens. Matter 29 465901 (2017);
          URL http://www.quantum-espresso.org", 
     in publications or presentations arising from this work. More details at
     http://www.quantum-espresso.org/quote

     Parallel version (MPI), running on     8 processors

     MPI processes distributed on     1 nodes
     R & G space division:  proc/nbgrp/npool/nimage =       8
     Waiting for input...
     Reading input from standard input
      Title line not specified: using 'default'.

     Reading xml data from directory:

     ./out/H2CaO2.save/
     file Ca.pbe-spn-kjpaw_psl.1.0.0.UPF: wavefunction(s)  3S renormalized
     file O.pbe-n-kjpaw_psl.0.1.UPF: wavefunction(s)  2P renormalized

     IMPORTANT: XC functional enforced from input :
     Exchange-correlation= PBE
                           (   1   4   3   4   0   0   0)
     Any further DFT definition will be discarded
     Please, verify this is what you really want


     Parallelization info
     --------------------
     sticks:   dense  smooth     PW     G-vecs:    dense   smooth      PW
     Min         158      79     24                 6111     2159     378
     Max         161      80     25                 6113     2164     383
     Sum        1273     637    199                48895    17295    3055


     Check: negative core charge=   -0.000003
     Reading collected, re-writing distributed wavefunctions

     Calculation of q =    0.0000000   0.0000000   0.0000000

     default                                                                    

     bravais-lattice index     =            0
     lattice parameter (alat)  =       6.7798  a.u.
     unit-cell volume          =     361.6405 (a.u.)^3
     number of atoms/cell      =            5
     number of atomic types    =            3
     kinetic-energy cut-off    =      50.0000  Ry
     charge density cut-off    =     400.0000  Ry
     convergence threshold     =      1.0E-12
     beta                      =       0.7000
     number of iterations used =            4
     Exchange-correlation= PBE
                           (   1   4   3   4   0   0   0)


     celldm(1)=    6.77980  celldm(2)=    0.00000  celldm(3)=    0.00000
     celldm(4)=    0.00000  celldm(5)=    0.00000  celldm(6)=    0.00000

     crystal axes: (cart. coord. in units of alat)
               a(1) = (  0.5000  0.8648 -0.0458 )  
               a(2) = ( -0.5000  0.8648 -0.0458 )  
               a(3) = (  0.0000  0.1035  1.3363 )  

     reciprocal axes: (cart. coord. in units 2 pi/alat)
               b(1) = (  1.0000  0.5758 -0.0446 )  
               b(2) = ( -1.0000  0.5758 -0.0446 )  
               b(3) = (  0.0000  0.0395  0.7453 )  


     Atoms inside the unit cell: 

     Cartesian axes

     site n.  atom      mass           positions (alat units)
        1     Ca  40.0780   tau(    1) = (   -0.41427    0.86481   -0.04581  )
        2     H    1.0080   tau(    2) = (    0.09435    1.22155    0.68674  )
        3     H    1.0080   tau(    3) = (    0.09435    0.61152    0.55800  )
        4     O   15.9990   tau(    4) = (    0.08583    1.24027    0.95519  )
        5     O   15.9990   tau(    5) = (    0.08583    0.59280    0.28955  )

     Computing dynamical matrix for 
                    q = (   0.0000000   0.0000000   0.0000000 )

      2 Sym.Ops. (with q -> -q+G )


     G cutoff =  465.7300  (   6111 G-vectors)     FFT grid: ( 45, 45, 60)
     G cutoff =  232.8650  (   2164 G-vectors)  smooth grid: ( 32, 32, 45)
     number of k points=   112

     PseudoPot. # 1 for Ca read from file:
     /data/pseudopotentials/Ca.pbe-spn-kjpaw_psl.1.0.0.UPF
     MD5 check sum: 1e11ab70c77b02a7d7d676f41d47b751
     Pseudo is Projector augmented-wave + core cor, Zval = 10.0
     Generated using &quot;atomic&quot; code by A. Dal Corso  v.6.4.1
     Shape of augmentation charge: PSQ
     Using radial grid of 1169 points,  6 beta functions with: 
                l(1) =   0
                l(2) =   0
                l(3) =   1
                l(4) =   1
                l(5) =   2
                l(6) =   2
     Q(r) pseudized with 0 coefficients 


     PseudoPot. # 2 for H  read from file:
     /data/pseudopotentials/h_pbe_v1.4.uspp.F.UPF
     MD5 check sum: 761ae9a214b05c3daf00ab9f6b793d6f
     Pseudo is Ultrasoft, Zval =  1.0
     Generated by new atomic code, or converted to UPF format
     Using radial grid of  615 points,  2 beta functions with: 
                l(1) =   0
                l(2) =   0
     Q(r) pseudized with  8 coefficients,  rinner =    0.700

     PseudoPot. # 3 for O  read from file:
     /data/pseudopotentials/O.pbe-n-kjpaw_psl.0.1.UPF
     MD5 check sum: 833c495a5d0f9b75bf046115549bffff
     Pseudo is Projector augmented-wave + core cor, Zval =  6.0
     Generated using &quot;atomic&quot; code by A. Dal Corso  v.6.3
     Shape of augmentation charge: BESSEL
     Using radial grid of 1095 points,  4 beta functions with: 
                l(1) =   0
                l(2) =   0
                l(3) =   1
                l(4) =   1
     Q(r) pseudized with 0 coefficients 


     Mode symmetry, C_1 (1)     point group:


     Electric field:
     Dielectric constant
     Born effective charges as d Force / d E


     Atomic displacements:
     There are   15 irreducible representations

     Representation     1      1 modes -  To be done

     Representation     2      1 modes -  To be done

     Representation     3      1 modes -  To be done

     Representation     4      1 modes -  To be done

     Representation     5      1 modes -  To be done

     Representation     6      1 modes -  To be done

     Representation     7      1 modes -  To be done

     Representation     8      1 modes -  To be done

     Representation     9      1 modes -  To be done

     Representation    10      1 modes -  To be done

     Representation    11      1 modes -  To be done

     Representation    12      1 modes -  To be done

     Representation    13      1 modes -  To be done

     Representation    14      1 modes -  To be done

     Representation    15      1 modes -  To be done



     Alpha used in Ewald sum =   2.8000
     PHONON       :     30.11s CPU     37.58s WALL


     Electric Fields Calculation

      iter #   1 total cpu time :   703.5 secs   av.it.:   9.9
      thresh= 1.000E-02 alpha_mix =  0.700 |ddv_scf|^2 =  2.883E-08

      iter #   2 total cpu time :   968.0 secs   av.it.:  17.2
      thresh= 1.698E-05 alpha_mix =  0.700 |ddv_scf|^2 =  5.563E-09

      iter #   3 total cpu time :  1046.9 secs   av.it.:  16.9
      thresh= 7.459E-06 alpha_mix =  0.700 |ddv_scf|^2 =  6.187E-09

      iter #   4 total cpu time :  1079.6 secs   av.it.:  14.4
      thresh= 7.866E-06 alpha_mix =  0.700 |ddv_scf|^2 =  1.565E-10

      iter #   5 total cpu time :  1116.1 secs   av.it.:  16.3
      thresh= 1.251E-06 alpha_mix =  0.700 |ddv_scf|^2 =  3.847E-12

      iter #   6 total cpu time :  1153.2 secs   av.it.:  16.6
      thresh= 1.961E-07 alpha_mix =  0.700 |ddv_scf|^2 =  1.217E-13

     End of electric fields calculation

          Dielectric constant in cartesian axis 

          (       2.788055180      -0.000220489       0.000014770 )
          (      -0.000220485       2.762899885      -0.021462478 )
          (       0.000014771      -0.021462440       2.559815676 )

          Effective charges (d Force / dE) in cartesian axis

           atom      1   Ca 
      Ex  (        2.40931       -0.00015        0.00001 )
      Ey  (       -0.00017        2.41333       -0.02049 )
      Ez  (        0.00001       -0.01756        2.05079 )
           atom      2   H  
      Ex  (        0.41330        0.00474       -0.00167 )
      Ey  (        0.00495        0.37962       -0.02132 )
      Ez  (        0.00010       -0.02006        0.31095 )
           atom      3   H  
      Ex  (        0.41330       -0.00478        0.00167 )
      Ey  (       -0.00500        0.37962       -0.02132 )
      Ez  (       -0.00009       -0.02006        0.31094 )
           atom      4   O  
      Ex  (       -1.61531        0.00480       -0.00052 )
      Ey  (        0.00396       -1.58288        0.03122 )
      Ez  (       -0.00829        0.02849       -1.33923 )
           atom      5   O  
      Ex  (       -1.61532       -0.00410        0.00046 )
      Ey  (       -0.00323       -1.58288        0.03122 )
      Ez  (        0.00823        0.02848       -1.33923 )


     Representation #   1 mode #   1

     Self-consistent Calculation

      iter #   1 total cpu time :  1207.0 secs   av.it.:   9.8
      thresh= 1.000E-02 alpha_mix =  0.700 |ddv_scf|^2 =  3.324E-06

      iter #   2 total cpu time :  1218.7 secs   av.it.:  15.7
      thresh= 1.823E-04 alpha_mix =  0.700 |ddv_scf|^2 =  3.363E-07

      iter #   3 total cpu time :  1230.4 secs   av.it.:  15.4
      thresh= 5.799E-05 alpha_mix =  0.700 |ddv_scf|^2 =  1.581E-09

      iter #   4 total cpu time :  1241.9 secs   av.it.:  15.2
      thresh= 3.976E-06 alpha_mix =  0.700 |ddv_scf|^2 =  3.246E-11

      iter #   5 total cpu time :  1254.1 secs   av.it.:  16.2
      thresh= 5.698E-07 alpha_mix =  0.700 |ddv_scf|^2 =  2.423E-11

      iter #   6 total cpu time :  1266.0 secs   av.it.:  15.8
      thresh= 4.922E-07 alpha_mix =  0.700 |ddv_scf|^2 =  2.111E-13

     End of self-consistent calculation

     Convergence has been achieved 


     Representation #   2 mode #   2

     Self-consistent Calculation

      iter #   1 total cpu time :  1274.7 secs   av.it.:   9.8
      thresh= 1.000E-02 alpha_mix =  0.700 |ddv_scf|^2 =  3.343E-06

      iter #   2 total cpu time :  1286.5 secs   av.it.:  15.8
      thresh= 1.828E-04 alpha_mix =  0.700 |ddv_scf|^2 =  3.471E-07

      iter #   3 total cpu time :  1298.3 secs   av.it.:  15.7
      thresh= 5.892E-05 alpha_mix =  0.700 |ddv_scf|^2 =  6.016E-09

      iter #   4 total cpu time :  1310.2 secs   av.it.:  15.8
      thresh= 7.757E-06 alpha_mix =  0.700 |ddv_scf|^2 =  2.252E-09

      iter #   5 total cpu time :  1322.0 secs   av.it.:  15.7
      thresh= 4.745E-06 alpha_mix =  0.700 |ddv_scf|^2 =  1.363E-11

      iter #   6 total cpu time :  1333.7 secs   av.it.:  15.8
      thresh= 3.691E-07 alpha_mix =  0.700 |ddv_scf|^2 =  8.350E-13

     End of self-consistent calculation

     Convergence has been achieved 


     Representation #   3 mode #   3

     Self-consistent Calculation

      iter #   1 total cpu time :  1342.5 secs   av.it.:   9.9
      thresh= 1.000E-02 alpha_mix =  0.700 |ddv_scf|^2 =  9.442E-06

      iter #   2 total cpu time :  1354.2 secs   av.it.:  15.7
      thresh= 3.073E-04 alpha_mix =  0.700 |ddv_scf|^2 =  3.743E-06

      iter #   3 total cpu time :  1366.0 secs   av.it.:  15.6
      thresh= 1.935E-04 alpha_mix =  0.700 |ddv_scf|^2 =  4.636E-07

      iter #   4 total cpu time :  1377.7 secs   av.it.:  15.5
      thresh= 6.809E-05 alpha_mix =  0.700 |ddv_scf|^2 =  1.224E-09

      iter #   5 total cpu time :  1389.1 secs   av.it.:  15.1
      thresh= 3.499E-06 alpha_mix =  0.700 |ddv_scf|^2 =  8.568E-11

      iter #   6 total cpu time :  1400.5 secs   av.it.:  14.9
      thresh= 9.256E-07 alpha_mix =  0.700 |ddv_scf|^2 =  3.142E-13

     End of self-consistent calculation

     Convergence has been achieved 


     Representation #   4 mode #   4

     Self-consistent Calculation

      iter #   1 total cpu time :  1406.1 secs   av.it.:   5.0
      thresh= 1.000E-02 alpha_mix =  0.700 |ddv_scf|^2 =  8.175E-09

      iter #   2 total cpu time :  1417.9 secs   av.it.:  15.8
      thresh= 9.041E-06 alpha_mix =  0.700 |ddv_scf|^2 =  4.193E-10

      iter #   3 total cpu time :  1430.5 secs   av.it.:  17.0
      thresh= 2.048E-06 alpha_mix =  0.700 |ddv_scf|^2 =  5.028E-10

      iter #   4 total cpu time :  1442.5 secs   av.it.:  15.8
      thresh= 2.242E-06 alpha_mix =  0.700 |ddv_scf|^2 =  1.697E-11

      iter #   5 total cpu time :  1454.5 secs   av.it.:  16.0
      thresh= 4.120E-07 alpha_mix =  0.700 |ddv_scf|^2 =  2.370E-12

      iter #   6 total cpu time :  1466.6 secs   av.it.:  16.1
      thresh= 1.540E-07 alpha_mix =  0.700 |ddv_scf|^2 =  1.282E-13

     End of self-consistent calculation

     Convergence has been achieved 


     Representation #   5 mode #   5

     Self-consistent Calculation

      iter #   1 total cpu time :  1472.2 secs   av.it.:   5.0
      thresh= 1.000E-02 alpha_mix =  0.700 |ddv_scf|^2 =  8.539E-09

      iter #   2 total cpu time :  1484.2 secs   av.it.:  15.9
      thresh= 9.241E-06 alpha_mix =  0.700 |ddv_scf|^2 =  1.278E-09

      iter #   3 total cpu time :  1496.7 secs   av.it.:  16.7
      thresh= 3.575E-06 alpha_mix =  0.700 |ddv_scf|^2 =  1.348E-09

      iter #   4 total cpu time :  1508.5 secs   av.it.:  15.6
      thresh= 3.672E-06 alpha_mix =  0.700 |ddv_scf|^2 =  1.377E-11

      iter #   5 total cpu time :  1521.0 secs   av.it.:  16.7
      thresh= 3.711E-07 alpha_mix =  0.700 |ddv_scf|^2 =  8.131E-12

      iter #   6 total cpu time :  1532.8 secs   av.it.:  15.8
      thresh= 2.852E-07 alpha_mix =  0.700 |ddv_scf|^2 =  9.199E-14

     End of self-consistent calculation

     Convergence has been achieved 


     Representation #   6 mode #   6

     Self-consistent Calculation

      iter #   1 total cpu time :  1539.6 secs   av.it.:   7.0
      thresh= 1.000E-02 alpha_mix =  0.700 |ddv_scf|^2 =  1.905E-07

      iter #   2 total cpu time :  1551.6 secs   av.it.:  16.4
      thresh= 4.365E-05 alpha_mix =  0.700 |ddv_scf|^2 =  3.063E-07

      iter #   3 total cpu time :  1563.2 secs   av.it.:  15.6
      thresh= 5.534E-05 alpha_mix =  0.700 |ddv_scf|^2 =  2.728E-09

      iter #   4 total cpu time :  1575.3 secs   av.it.:  15.9
      thresh= 5.223E-06 alpha_mix =  0.700 |ddv_scf|^2 =  6.068E-10

      iter #   5 total cpu time :  1587.1 secs   av.it.:  15.7
      thresh= 2.463E-06 alpha_mix =  0.700 |ddv_scf|^2 =  4.962E-12

      iter #   6 total cpu time :  1599.1 secs   av.it.:  16.0
      thresh= 2.228E-07 alpha_mix =  0.700 |ddv_scf|^2 =  4.265E-13

     End of self-consistent calculation

     Convergence has been achieved 


     Representation #   7 mode #   7

     Self-consistent Calculation

      iter #   1 total cpu time :  1604.8 secs   av.it.:   5.0
      thresh= 1.000E-02 alpha_mix =  0.700 |ddv_scf|^2 =  8.175E-09

      iter #   2 total cpu time :  1616.7 secs   av.it.:  15.8
      thresh= 9.041E-06 alpha_mix =  0.700 |ddv_scf|^2 =  4.193E-10

      iter #   3 total cpu time :  1629.3 secs   av.it.:  17.0
      thresh= 2.048E-06 alpha_mix =  0.700 |ddv_scf|^2 =  5.028E-10

      iter #   4 total cpu time :  1641.3 secs   av.it.:  15.8
      thresh= 2.242E-06 alpha_mix =  0.700 |ddv_scf|^2 =  1.697E-11

      iter #   5 total cpu time :  1653.3 secs   av.it.:  16.0
      thresh= 4.120E-07 alpha_mix =  0.700 |ddv_scf|^2 =  2.370E-12

      iter #   6 total cpu time :  1665.5 secs   av.it.:  16.1
      thresh= 1.540E-07 alpha_mix =  0.700 |ddv_scf|^2 =  1.282E-13

     End of self-consistent calculation

     Convergence has been achieved 


     Representation #   8 mode #   8

     Self-consistent Calculation

      iter #   1 total cpu time :  1671.1 secs   av.it.:   5.0
      thresh= 1.000E-02 alpha_mix =  0.700 |ddv_scf|^2 =  8.539E-09

      iter #   2 total cpu time :  1683.1 secs   av.it.:  15.9
      thresh= 9.241E-06 alpha_mix =  0.700 |ddv_scf|^2 =  1.278E-09

      iter #   3 total cpu time :  1695.6 secs   av.it.:  16.7
      thresh= 3.575E-06 alpha_mix =  0.700 |ddv_scf|^2 =  1.348E-09

      iter #   4 total cpu time :  1707.4 secs   av.it.:  15.6
      thresh= 3.672E-06 alpha_mix =  0.700 |ddv_scf|^2 =  1.377E-11

      iter #   5 total cpu time :  1719.9 secs   av.it.:  16.7
      thresh= 3.711E-07 alpha_mix =  0.700 |ddv_scf|^2 =  8.131E-12

      iter #   6 total cpu time :  1731.8 secs   av.it.:  15.8
      thresh= 2.852E-07 alpha_mix =  0.700 |ddv_scf|^2 =  9.199E-14

     End of self-consistent calculation

     Convergence has been achieved 


     Representation #   9 mode #   9

     Self-consistent Calculation

      iter #   1 total cpu time :  1738.5 secs   av.it.:   7.0
      thresh= 1.000E-02 alpha_mix =  0.700 |ddv_scf|^2 =  1.905E-07

      iter #   2 total cpu time :  1750.8 secs   av.it.:  16.4
      thresh= 4.365E-05 alpha_mix =  0.700 |ddv_scf|^2 =  3.063E-07

      iter #   3 total cpu time :  1762.4 secs   av.it.:  15.6
      thresh= 5.534E-05 alpha_mix =  0.700 |ddv_scf|^2 =  2.728E-09

      iter #   4 total cpu time :  1774.2 secs   av.it.:  15.9
      thresh= 5.223E-06 alpha_mix =  0.700 |ddv_scf|^2 =  6.068E-10

      iter #   5 total cpu time :  1785.9 secs   av.it.:  15.7
      thresh= 2.463E-06 alpha_mix =  0.700 |ddv_scf|^2 =  4.962E-12

      iter #   6 total cpu time :  1797.8 secs   av.it.:  16.0
      thresh= 2.228E-07 alpha_mix =  0.700 |ddv_scf|^2 =  4.265E-13

     End of self-consistent calculation

     Convergence has been achieved 


     Representation #  10 mode #  10

     Self-consistent Calculation

      iter #   1 total cpu time :  1806.2 secs   av.it.:   9.8
      thresh= 1.000E-02 alpha_mix =  0.700 |ddv_scf|^2 =  1.679E-06

      iter #   2 total cpu time :  1817.9 secs   av.it.:  16.0
      thresh= 1.296E-04 alpha_mix =  0.700 |ddv_scf|^2 =  1.496E-08

      iter #   3 total cpu time :  1829.7 secs   av.it.:  16.1
      thresh= 1.223E-05 alpha_mix =  0.700 |ddv_scf|^2 =  6.212E-10

      iter #   4 total cpu time :  1841.8 secs   av.it.:  16.1
      thresh= 2.492E-06 alpha_mix =  0.700 |ddv_scf|^2 =  7.821E-11

      iter #   5 total cpu time :  1854.1 secs   av.it.:  16.7
      thresh= 8.843E-07 alpha_mix =  0.700 |ddv_scf|^2 =  7.444E-11

      iter #   6 total cpu time :  1865.8 secs   av.it.:  15.8
      thresh= 8.628E-07 alpha_mix =  0.700 |ddv_scf|^2 =  3.268E-13

     End of self-consistent calculation

     Convergence has been achieved 


     Representation #  11 mode #  11

     Self-consistent Calculation

      iter #   1 total cpu time :  1874.2 secs   av.it.:   9.8
      thresh= 1.000E-02 alpha_mix =  0.700 |ddv_scf|^2 =  1.688E-06

      iter #   2 total cpu time :  1886.2 secs   av.it.:  16.1
      thresh= 1.299E-04 alpha_mix =  0.700 |ddv_scf|^2 =  1.811E-08

      iter #   3 total cpu time :  1898.3 secs   av.it.:  16.2
      thresh= 1.346E-05 alpha_mix =  0.700 |ddv_scf|^2 =  1.051E-09

      iter #   4 total cpu time :  1910.2 secs   av.it.:  16.1
      thresh= 3.242E-06 alpha_mix =  0.700 |ddv_scf|^2 =  9.555E-11

      iter #   5 total cpu time :  1922.4 secs   av.it.:  16.7
      thresh= 9.775E-07 alpha_mix =  0.700 |ddv_scf|^2 =  6.154E-11

      iter #   6 total cpu time :  1934.3 secs   av.it.:  16.0
      thresh= 7.845E-07 alpha_mix =  0.700 |ddv_scf|^2 =  6.039E-13

     End of self-consistent calculation

     Convergence has been achieved 


     Representation #  12 mode #  12

     Self-consistent Calculation

      iter #   1 total cpu time :  1942.8 secs   av.it.:  10.0
      thresh= 1.000E-02 alpha_mix =  0.700 |ddv_scf|^2 =  5.859E-06

      iter #   2 total cpu time :  1954.3 secs   av.it.:  15.6
      thresh= 2.421E-04 alpha_mix =  0.700 |ddv_scf|^2 =  1.192E-06

      iter #   3 total cpu time :  1965.4 secs   av.it.:  15.0
      thresh= 1.092E-04 alpha_mix =  0.700 |ddv_scf|^2 =  8.081E-09

      iter #   4 total cpu time :  1977.6 secs   av.it.:  16.5
      thresh= 8.990E-06 alpha_mix =  0.700 |ddv_scf|^2 =  6.067E-09

      iter #   5 total cpu time :  1989.3 secs   av.it.:  15.7
      thresh= 7.789E-06 alpha_mix =  0.700 |ddv_scf|^2 =  3.295E-11

      iter #   6 total cpu time :  2001.4 secs   av.it.:  16.3
      thresh= 5.740E-07 alpha_mix =  0.700 |ddv_scf|^2 =  2.075E-11

      iter #   7 total cpu time :  2013.1 secs   av.it.:  15.9
      thresh= 4.556E-07 alpha_mix =  0.700 |ddv_scf|^2 =  2.759E-12

      iter #   8 total cpu time :  2024.6 secs   av.it.:  15.6
      thresh= 1.661E-07 alpha_mix =  0.700 |ddv_scf|^2 =  3.870E-14

     End of self-consistent calculation

     Convergence has been achieved 


     Representation #  13 mode #  13

     Self-consistent Calculation

      iter #   1 total cpu time :  2032.9 secs   av.it.:   9.8
      thresh= 1.000E-02 alpha_mix =  0.700 |ddv_scf|^2 =  1.679E-06

      iter #   2 total cpu time :  2044.9 secs   av.it.:  16.0
      thresh= 1.296E-04 alpha_mix =  0.700 |ddv_scf|^2 =  1.496E-08

      iter #   3 total cpu time :  2056.9 secs   av.it.:  16.1
      thresh= 1.223E-05 alpha_mix =  0.700 |ddv_scf|^2 =  6.212E-10

      iter #   4 total cpu time :  2068.9 secs   av.it.:  16.1
      thresh= 2.492E-06 alpha_mix =  0.700 |ddv_scf|^2 =  7.821E-11

      iter #   5 total cpu time :  2081.0 secs   av.it.:  16.7
      thresh= 8.843E-07 alpha_mix =  0.700 |ddv_scf|^2 =  7.445E-11

      iter #   6 total cpu time :  2092.6 secs   av.it.:  15.8
      thresh= 8.628E-07 alpha_mix =  0.700 |ddv_scf|^2 =  3.268E-13

     End of self-consistent calculation

     Convergence has been achieved 


     Representation #  14 mode #  14

     Self-consistent Calculation

      iter #   1 total cpu time :  2101.0 secs   av.it.:   9.8
      thresh= 1.000E-02 alpha_mix =  0.700 |ddv_scf|^2 =  1.688E-06

      iter #   2 total cpu time :  2112.9 secs   av.it.:  16.1
      thresh= 1.299E-04 alpha_mix =  0.700 |ddv_scf|^2 =  1.811E-08

      iter #   3 total cpu time :  2124.9 secs   av.it.:  16.2
      thresh= 1.346E-05 alpha_mix =  0.700 |ddv_scf|^2 =  1.051E-09

      iter #   4 total cpu time :  2136.8 secs   av.it.:  16.1
      thresh= 3.242E-06 alpha_mix =  0.700 |ddv_scf|^2 =  9.555E-11

      iter #   5 total cpu time :  2149.0 secs   av.it.:  16.7
      thresh= 9.775E-07 alpha_mix =  0.700 |ddv_scf|^2 =  6.154E-11

      iter #   6 total cpu time :  2160.9 secs   av.it.:  16.0
      thresh= 7.845E-07 alpha_mix =  0.700 |ddv_scf|^2 =  6.038E-13

     End of self-consistent calculation

     Convergence has been achieved 


     Representation #  15 mode #  15

     Self-consistent Calculation

      iter #   1 total cpu time :  2169.4 secs   av.it.:  10.0
      thresh= 1.000E-02 alpha_mix =  0.700 |ddv_scf|^2 =  5.859E-06

      iter #   2 total cpu time :  2181.0 secs   av.it.:  15.6
      thresh= 2.421E-04 alpha_mix =  0.700 |ddv_scf|^2 =  1.192E-06

      iter #   3 total cpu time :  2192.1 secs   av.it.:  15.0
      thresh= 1.092E-04 alpha_mix =  0.700 |ddv_scf|^2 =  8.081E-09

      iter #   4 total cpu time :  2204.1 secs   av.it.:  16.5
      thresh= 8.990E-06 alpha_mix =  0.700 |ddv_scf|^2 =  6.067E-09

      iter #   5 total cpu time :  2215.6 secs   av.it.:  15.7
      thresh= 7.789E-06 alpha_mix =  0.700 |ddv_scf|^2 =  3.295E-11

      iter #   6 total cpu time :  2227.6 secs   av.it.:  16.3
      thresh= 5.740E-07 alpha_mix =  0.700 |ddv_scf|^2 =  2.075E-11

      iter #   7 total cpu time :  2239.2 secs   av.it.:  15.9
      thresh= 4.555E-07 alpha_mix =  0.700 |ddv_scf|^2 =  2.759E-12

      iter #   8 total cpu time :  2250.8 secs   av.it.:  15.6
      thresh= 1.661E-07 alpha_mix =  0.700 |ddv_scf|^2 =  3.870E-14

     End of self-consistent calculation

     Convergence has been achieved 

     Number of q in the star =    1
     List of q in the star:
          1   0.000000000   0.000000000   0.000000000

          Dielectric constant in cartesian axis 

          (       2.788055180      -0.000220489       0.000014770 )
          (      -0.000220485       2.762899885      -0.021462478 )
          (       0.000014771      -0.021462440       2.559815676 )

          Effective charges (d Force / dE) in cartesian axis

           atom      1   Ca 
      Ex  (        2.40931       -0.00015        0.00001 )
      Ey  (       -0.00017        2.41333       -0.02049 )
      Ez  (        0.00001       -0.01756        2.05079 )
           atom      2   H  
      Ex  (        0.41330        0.00474       -0.00167 )
      Ey  (        0.00495        0.37962       -0.02132 )
      Ez  (        0.00010       -0.02006        0.31095 )
           atom      3   H  
      Ex  (        0.41330       -0.00478        0.00167 )
      Ey  (       -0.00500        0.37962       -0.02132 )
      Ez  (       -0.00009       -0.02006        0.31094 )
           atom      4   O  
      Ex  (       -1.61531        0.00480       -0.00052 )
      Ey  (        0.00396       -1.58288        0.03122 )
      Ez  (       -0.00829        0.02849       -1.33923 )
           atom      5   O  
      Ex  (       -1.61532       -0.00410        0.00046 )
      Ey  (       -0.00323       -1.58288        0.03122 )
      Ez  (        0.00823        0.02848       -1.33923 )

     Diagonalizing the dynamical matrix

     q = (    0.000000000   0.000000000   0.000000000 ) 

 **************************************************************************
     freq (    1) =      -9.592542 [THz] =    -319.972761 [cm-1]
     freq (    2) =      -6.087887 [THz] =    -203.070061 [cm-1]
     freq (    3) =      -1.211481 [THz] =     -40.410666 [cm-1]
     freq (    4) =       0.443791 [THz] =      14.803281 [cm-1]
     freq (    5) =       0.446571 [THz] =      14.896015 [cm-1]
     freq (    6) =       7.014913 [THz] =     233.992308 [cm-1]
     freq (    7) =       7.153980 [THz] =     238.631092 [cm-1]
     freq (    8) =       8.531195 [THz] =     284.570035 [cm-1]
     freq (    9) =       8.782655 [THz] =     292.957825 [cm-1]
     freq (   10) =      10.350470 [THz] =     345.254502 [cm-1]
     freq (   11) =      11.186124 [THz] =     373.128929 [cm-1]
     freq (   12) =      15.785397 [THz] =     526.544168 [cm-1]
     freq (   13) =      18.008051 [THz] =     600.683919 [cm-1]
     freq (   14) =     117.377024 [THz] =    3915.276078 [cm-1]
     freq (   15) =     118.046224 [THz] =    3937.598186 [cm-1]
 **************************************************************************

     Mode symmetry, C_1 (1)     point group:

     freq (   1-   1) =       -320.0  [cm-1]   --> A               I+R
     freq (   2-   2) =       -203.1  [cm-1]   --> A               I+R
     freq (   3-   3) =        -40.4  [cm-1]   --> A               I+R
     freq (   4-   4) =         14.8  [cm-1]   --> A               I+R
     freq (   5-   5) =         14.9  [cm-1]   --> A               I+R
     freq (   6-   6) =        234.0  [cm-1]   --> A               I+R
     freq (   7-   7) =        238.6  [cm-1]   --> A               I+R
     freq (   8-   8) =        284.6  [cm-1]   --> A               I+R
     freq (   9-   9) =        293.0  [cm-1]   --> A               I+R
     freq (  10-  10) =        345.3  [cm-1]   --> A               I+R
     freq (  11-  11) =        373.1  [cm-1]   --> A               I+R
     freq (  12-  12) =        526.5  [cm-1]   --> A               I+R
     freq (  13-  13) =        600.7  [cm-1]   --> A               I+R
     freq (  14-  14) =       3915.3  [cm-1]   --> A               I+R
     freq (  15-  15) =       3937.6  [cm-1]   --> A               I+R

     PHONON       :  33m22.03s CPU  37m31.12s WALL

     INITIALIZATION: 
     phq_setup    :      0.03s CPU      0.07s WALL (       1 calls)
     phq_init     :     27.05s CPU     33.70s WALL (       1 calls)

     phq_init     :     27.05s CPU     33.70s WALL (       1 calls)
     set_drhoc    :      0.73s CPU      0.82s WALL (       3 calls)
     init_vloc    :      0.24s CPU      0.24s WALL (       1 calls)
     init_us_1    :      0.43s CPU      0.43s WALL (       1 calls)
     newd         :      0.05s CPU      0.10s WALL (       1 calls)
     dvanqq       :      0.85s CPU      0.94s WALL (       1 calls)
     drho         :     21.82s CPU     28.06s WALL (       1 calls)
     cmpt_qdipol  :      0.00s CPU      0.00s WALL (       1 calls)

     DIELECTRIC CONSTANT AND EFFECTIVE CHARGES:
     solve_e      :    903.96s CPU   1115.66s WALL (       1 calls)
     dielec       :      0.01s CPU      0.04s WALL (       1 calls)
     zstar_eu     :     43.77s CPU     45.40s WALL (       1 calls)

     DYNAMICAL MATRIX:
     dynmat0      :      2.63s CPU      2.83s WALL (       1 calls)
     phqscf       :   1024.18s CPU   1052.39s WALL (       1 calls)
     dynmatrix    :      0.00s CPU      0.00s WALL (       1 calls)

     phqscf       :   1024.18s CPU   1052.39s WALL (       1 calls)
     solve_linter :   1019.82s CPU   1047.86s WALL (      15 calls)
     drhodv       :      4.34s CPU      4.49s WALL (      15 calls)

     dynmat0      :      2.63s CPU      2.83s WALL (       1 calls)
     dynmat_us    :      1.78s CPU      1.98s WALL (       1 calls)
     d2ionq       :      0.03s CPU      0.03s WALL (       1 calls)
     dynmatcc     :      0.66s CPU      0.66s WALL (       1 calls)

     dynmat_us    :      1.78s CPU      1.98s WALL (       1 calls)
     addusdynmat  :      0.00s CPU      0.00s WALL (       1 calls)

     phqscf       :   1024.18s CPU   1052.39s WALL (       1 calls)
     solve_linter :   1019.82s CPU   1047.86s WALL (      15 calls)

     solve_linter :   1019.82s CPU   1047.86s WALL (      15 calls)
     dvqpsi_us    :     14.50s CPU     15.11s WALL (    3360 calls)
     ortho        :     23.04s CPU     24.79s WALL (   12880 calls)
     cgsolve      :   1720.90s CPU   1943.81s WALL (   12880 calls)
     incdrhoscf   :     45.27s CPU     50.18s WALL (   12880 calls)
     addusddens   :      6.46s CPU      7.07s WALL (     109 calls)
     vpsifft      :     19.55s CPU     20.81s WALL (    8848 calls)
     dv_of_drho   :      1.09s CPU      1.30s WALL (     115 calls)
     mix_pot      :      0.14s CPU      0.26s WALL (     100 calls)
     psymdvscf    :      1.39s CPU      1.44s WALL (      94 calls)
     newdq        :      6.39s CPU      6.40s WALL (     100 calls)
     adddvscf     :      7.22s CPU      7.52s WALL (   10528 calls)
     drhodvus     :      0.02s CPU      0.03s WALL (      15 calls)

     dvqpsi_us    :     14.50s CPU     15.11s WALL (    3360 calls)
     dvqpsi_us_on :      6.73s CPU      6.81s WALL (    3360 calls)

     cgsolve      :   1720.90s CPU   1943.81s WALL (   12880 calls)
     ch_psi       :   1595.31s CPU   1791.74s WALL (  254621 calls)

     ch_psi       :   1595.31s CPU   1791.74s WALL (  254621 calls)
     h_psi        :   1079.44s CPU   1234.84s WALL (  254621 calls)
     last         :    406.62s CPU    443.26s WALL (  254621 calls)

     h_psi        :   1079.44s CPU   1234.84s WALL (  254621 calls)
     add_vuspsi   :    101.43s CPU    106.76s WALL (  254621 calls)

     incdrhoscf   :     45.27s CPU     50.18s WALL (   12880 calls)
     addusdbec    :     11.38s CPU     13.12s WALL (   14560 calls)

     drhodvus     :      0.02s CPU      0.03s WALL (      15 calls)

      General routines
     calbec       :    341.52s CPU    378.82s WALL (  585514 calls)
     fft          :      1.97s CPU      2.44s WALL (    2634 calls)
     ffts         :      0.73s CPU      0.82s WALL (    3843 calls)
     fftw         :    829.02s CPU    968.20s WALL ( 5545316 calls)
     davcio       :      3.48s CPU      7.17s WALL (   67533 calls)
     write_rec    :      0.05s CPU      0.22s WALL (     115 calls)


     PHONON       :  33m22.03s CPU  37m31.12s WALL


   This run was terminated on:  14:28:42   1Jul2026            

=------------------------------------------------------------------------------=
   JOB DONE.
=------------------------------------------------------------------------------=
