
     Program PHONON v.6.7MaX starts on  2Jul2026 at  2:58:23 

     This program is part of the open-source Quantum ESPRESSO suite
     for quantum simulation of materials; please cite
         "P. Giannozzi et al., J. Phys.:Condens. Matter 21 395502 (2009);
         "P. Giannozzi et al., J. Phys.:Condens. Matter 29 465901 (2017);
          URL http://www.quantum-espresso.org", 
     in publications or presentations arising from this work. More details at
     http://www.quantum-espresso.org/quote

     Parallel version (MPI), running on     4 processors

     MPI processes distributed on     1 nodes
     R & G space division:  proc/nbgrp/npool/nimage =       4
     Waiting for input...
     Reading input from standard input
      Title line not specified: using 'default'.

     Reading xml data from directory:

     ./out/H2CaO2.save/
     file Ca.pbe-spn-kjpaw_psl.1.0.0.UPF: wavefunction(s)  3S renormalized
     file O.pbe-n-kjpaw_psl.0.1.UPF: wavefunction(s)  2P renormalized

     IMPORTANT: XC functional enforced from input :
     Exchange-correlation= PBE
                           (   1   4   3   4   0   0   0)
     Any further DFT definition will be discarded
     Please, verify this is what you really want


     Parallelization info
     --------------------
     sticks:   dense  smooth     PW     G-vecs:    dense   smooth      PW
     Min         317     159     49                12223     4322     761
     Max         319     160     50                12225     4327     765
     Sum        1273     637    199                48895    17295    3055


     Check: negative core charge=   -0.000003
     Reading collected, re-writing distributed wavefunctions

     Calculation of q =    0.0000000   0.0000000   0.0000000

     default                                                                    

     bravais-lattice index     =            0
     lattice parameter (alat)  =       6.7798  a.u.
     unit-cell volume          =     361.6405 (a.u.)^3
     number of atoms/cell      =            5
     number of atomic types    =            3
     kinetic-energy cut-off    =      50.0000  Ry
     charge density cut-off    =     400.0000  Ry
     convergence threshold     =      1.0E-16
     beta                      =       0.7000
     number of iterations used =            4
     Exchange-correlation= PBE
                           (   1   4   3   4   0   0   0)


     celldm(1)=    6.77980  celldm(2)=    0.00000  celldm(3)=    0.00000
     celldm(4)=    0.00000  celldm(5)=    0.00000  celldm(6)=    0.00000

     crystal axes: (cart. coord. in units of alat)
               a(1) = (  0.5000  0.8648 -0.0458 )  
               a(2) = ( -0.5000  0.8648 -0.0458 )  
               a(3) = (  0.0000  0.1035  1.3363 )  

     reciprocal axes: (cart. coord. in units 2 pi/alat)
               b(1) = (  1.0000  0.5758 -0.0446 )  
               b(2) = ( -1.0000  0.5758 -0.0446 )  
               b(3) = (  0.0000  0.0395  0.7453 )  


     Atoms inside the unit cell: 

     Cartesian axes

     site n.  atom      mass           positions (alat units)
        1     Ca  40.0780   tau(    1) = (   -0.41427    0.86481   -0.04581  )
        2     H    1.0080   tau(    2) = (    0.09435    1.22155    0.68674  )
        3     H    1.0080   tau(    3) = (    0.09435    0.61152    0.55800  )
        4     O   15.9990   tau(    4) = (    0.08583    1.24027    0.95519  )
        5     O   15.9990   tau(    5) = (    0.08583    0.59280    0.28955  )

     Computing dynamical matrix for 
                    q = (   0.0000000   0.0000000   0.0000000 )

      2 Sym.Ops. (with q -> -q+G )


     G cutoff =  465.7300  (  12224 G-vectors)     FFT grid: ( 45, 45, 60)
     G cutoff =  232.8650  (   4323 G-vectors)  smooth grid: ( 32, 32, 45)
     number of k points=   112

     PseudoPot. # 1 for Ca read from file:
     /data/pseudopotentials/Ca.pbe-spn-kjpaw_psl.1.0.0.UPF
     MD5 check sum: 1e11ab70c77b02a7d7d676f41d47b751
     Pseudo is Projector augmented-wave + core cor, Zval = 10.0
     Generated using &quot;atomic&quot; code by A. Dal Corso  v.6.4.1
     Shape of augmentation charge: PSQ
     Using radial grid of 1169 points,  6 beta functions with: 
                l(1) =   0
                l(2) =   0
                l(3) =   1
                l(4) =   1
                l(5) =   2
                l(6) =   2
     Q(r) pseudized with 0 coefficients 


     PseudoPot. # 2 for H  read from file:
     /data/pseudopotentials/h_pbe_v1.4.uspp.F.UPF
     MD5 check sum: 761ae9a214b05c3daf00ab9f6b793d6f
     Pseudo is Ultrasoft, Zval =  1.0
     Generated by new atomic code, or converted to UPF format
     Using radial grid of  615 points,  2 beta functions with: 
                l(1) =   0
                l(2) =   0
     Q(r) pseudized with  8 coefficients,  rinner =    0.700

     PseudoPot. # 3 for O  read from file:
     /data/pseudopotentials/O.pbe-n-kjpaw_psl.0.1.UPF
     MD5 check sum: 833c495a5d0f9b75bf046115549bffff
     Pseudo is Projector augmented-wave + core cor, Zval =  6.0
     Generated using &quot;atomic&quot; code by A. Dal Corso  v.6.3
     Shape of augmentation charge: BESSEL
     Using radial grid of 1095 points,  4 beta functions with: 
                l(1) =   0
                l(2) =   0
                l(3) =   1
                l(4) =   1
     Q(r) pseudized with 0 coefficients 


     Mode symmetry, C_1 (1)     point group:


     Electric field:
     Dielectric constant
     Born effective charges as d Force / d E


     Atomic displacements:
     There are   15 irreducible representations

     Representation     1      1 modes -  To be done

     Representation     2      1 modes -  To be done

     Representation     3      1 modes -  To be done

     Representation     4      1 modes -  To be done

     Representation     5      1 modes -  To be done

     Representation     6      1 modes -  To be done

     Representation     7      1 modes -  To be done

     Representation     8      1 modes -  To be done

     Representation     9      1 modes -  To be done

     Representation    10      1 modes -  To be done

     Representation    11      1 modes -  To be done

     Representation    12      1 modes -  To be done

     Representation    13      1 modes -  To be done

     Representation    14      1 modes -  To be done

     Representation    15      1 modes -  To be done



     Alpha used in Ewald sum =   2.8000
     PHONON       :   1m 4.66s CPU   1m52.61s WALL


     Electric Fields Calculation

      iter #   1 total cpu time :  1456.2 secs   av.it.:   9.9
      thresh= 1.000E-02 alpha_mix =  0.700 |ddv_scf|^2 =  3.277E-08

      iter #   2 total cpu time :  2032.0 secs   av.it.:  17.1
      thresh= 1.810E-05 alpha_mix =  0.700 |ddv_scf|^2 =  6.324E-09

      iter #   3 total cpu time :  2578.4 secs   av.it.:  16.8
      thresh= 7.952E-06 alpha_mix =  0.700 |ddv_scf|^2 =  7.033E-09

      iter #   4 total cpu time :  3042.4 secs   av.it.:  14.4
      thresh= 8.386E-06 alpha_mix =  0.700 |ddv_scf|^2 =  1.779E-10

      iter #   5 total cpu time :  3550.2 secs   av.it.:  16.3
      thresh= 1.334E-06 alpha_mix =  0.700 |ddv_scf|^2 =  4.373E-12

      iter #   6 total cpu time :  4072.8 secs   av.it.:  16.6
      thresh= 2.091E-07 alpha_mix =  0.700 |ddv_scf|^2 =  1.384E-13

      iter #   7 total cpu time :  4614.1 secs   av.it.:  17.7
      thresh= 3.720E-08 alpha_mix =  0.700 |ddv_scf|^2 =  7.006E-14

      iter #   8 total cpu time :  5116.6 secs   av.it.:  16.7
      thresh= 2.647E-08 alpha_mix =  0.700 |ddv_scf|^2 =  3.163E-15

      iter #   9 total cpu time :  5628.4 secs   av.it.:  17.7
      thresh= 5.624E-09 alpha_mix =  0.700 |ddv_scf|^2 =  8.222E-16

      iter #  10 total cpu time :  6125.0 secs   av.it.:  16.5
      thresh= 2.867E-09 alpha_mix =  0.700 |ddv_scf|^2 =  1.464E-16

      iter #  11 total cpu time :  6609.3 secs   av.it.:  15.8
      thresh= 1.210E-09 alpha_mix =  0.700 |ddv_scf|^2 =  4.006E-18

     End of electric fields calculation

          Dielectric constant in cartesian axis 

          (       2.788259466      -0.000219999       0.000014722 )
          (      -0.000219999       2.763113220      -0.021468901 )
          (       0.000014723      -0.021468955       2.559890901 )

          Effective charges (d Force / dE) in cartesian axis

           atom      1   Ca 
      Ex  (        2.40340       -0.00015        0.00001 )
      Ey  (       -0.00017        2.40751       -0.01999 )
      Ez  (        0.00001       -0.01709        2.05488 )
           atom      2   H  
      Ex  (        0.41325        0.00459       -0.00379 )
      Ey  (        0.00496        0.37947       -0.02132 )
      Ez  (        0.00008       -0.02004        0.31124 )
           atom      3   H  
      Ex  (        0.41325       -0.00464        0.00380 )
      Ey  (       -0.00500        0.37947       -0.02132 )
      Ez  (       -0.00008       -0.02004        0.31124 )
           atom      4   O  
      Ex  (       -1.61597        0.00470       -0.00200 )
      Ey  (        0.00395       -1.58358        0.03122 )
      Ez  (       -0.00829        0.02848       -1.34004 )
           atom      5   O  
      Ex  (       -1.61597       -0.00401        0.00194 )
      Ey  (       -0.00323       -1.58357        0.03122 )
      Ez  (        0.00823        0.02847       -1.34004 )


     Representation #   1 mode #   1

     Self-consistent Calculation

      iter #   1 total cpu time :  7137.2 secs   av.it.:   9.8
      thresh= 1.000E-02 alpha_mix =  0.700 |ddv_scf|^2 =  3.778E-06

      iter #   2 total cpu time :  7284.2 secs   av.it.:  15.6
      thresh= 1.944E-04 alpha_mix =  0.700 |ddv_scf|^2 =  3.823E-07

      iter #   3 total cpu time :  7428.1 secs   av.it.:  15.3
      thresh= 6.183E-05 alpha_mix =  0.700 |ddv_scf|^2 =  1.797E-09

      iter #   4 total cpu time :  7581.4 secs   av.it.:  15.1
      thresh= 4.239E-06 alpha_mix =  0.700 |ddv_scf|^2 =  3.691E-11

      iter #   5 total cpu time :  7735.8 secs   av.it.:  16.2
      thresh= 6.075E-07 alpha_mix =  0.700 |ddv_scf|^2 =  2.754E-11

      iter #   6 total cpu time :  7879.6 secs   av.it.:  15.8
      thresh= 5.248E-07 alpha_mix =  0.700 |ddv_scf|^2 =  2.401E-13

      iter #   7 total cpu time :  8032.8 secs   av.it.:  16.1
      thresh= 4.900E-08 alpha_mix =  0.700 |ddv_scf|^2 =  1.466E-14

      iter #   8 total cpu time :  8191.8 secs   av.it.:  15.8
      thresh= 1.211E-08 alpha_mix =  0.700 |ddv_scf|^2 =  4.293E-16

      iter #   9 total cpu time :  8337.0 secs   av.it.:  15.9
      thresh= 2.072E-09 alpha_mix =  0.700 |ddv_scf|^2 =  2.300E-17

     End of self-consistent calculation

     Convergence has been achieved 


     Representation #   2 mode #   2

     Self-consistent Calculation

      iter #   1 total cpu time :  8446.0 secs   av.it.:   9.8
      thresh= 1.000E-02 alpha_mix =  0.700 |ddv_scf|^2 =  3.801E-06

      iter #   2 total cpu time :  8594.6 secs   av.it.:  15.6
      thresh= 1.949E-04 alpha_mix =  0.700 |ddv_scf|^2 =  3.946E-07

      iter #   3 total cpu time :  8748.8 secs   av.it.:  15.5
      thresh= 6.282E-05 alpha_mix =  0.700 |ddv_scf|^2 =  6.839E-09

      iter #   4 total cpu time :  8908.9 secs   av.it.:  15.7
      thresh= 8.270E-06 alpha_mix =  0.700 |ddv_scf|^2 =  2.560E-09

      iter #   5 total cpu time :  9068.7 secs   av.it.:  15.6
      thresh= 5.060E-06 alpha_mix =  0.700 |ddv_scf|^2 =  1.549E-11

      iter #   6 total cpu time :  9211.4 secs   av.it.:  15.6
      thresh= 3.936E-07 alpha_mix =  0.700 |ddv_scf|^2 =  9.492E-13

      iter #   7 total cpu time :  9379.1 secs   av.it.:  16.2
      thresh= 9.743E-08 alpha_mix =  0.700 |ddv_scf|^2 =  1.534E-13

      iter #   8 total cpu time :  9535.9 secs   av.it.:  15.9
      thresh= 3.917E-08 alpha_mix =  0.700 |ddv_scf|^2 =  4.136E-16

      iter #   9 total cpu time :  9684.5 secs   av.it.:  15.3
      thresh= 2.034E-09 alpha_mix =  0.700 |ddv_scf|^2 =  3.544E-17

     End of self-consistent calculation

     Convergence has been achieved 


     Representation #   3 mode #   3

     Self-consistent Calculation

      iter #   1 total cpu time :  9797.3 secs   av.it.:   9.9
      thresh= 1.000E-02 alpha_mix =  0.700 |ddv_scf|^2 =  1.073E-05

      iter #   2 total cpu time :  9941.2 secs   av.it.:  15.4
      thresh= 3.276E-04 alpha_mix =  0.700 |ddv_scf|^2 =  4.255E-06

      iter #   3 total cpu time : 10092.2 secs   av.it.:  15.6
      thresh= 2.063E-04 alpha_mix =  0.700 |ddv_scf|^2 =  5.270E-07

      iter #   4 total cpu time : 10235.9 secs   av.it.:  15.2
      thresh= 7.260E-05 alpha_mix =  0.700 |ddv_scf|^2 =  1.392E-09

      iter #   5 total cpu time : 10379.7 secs   av.it.:  15.0
      thresh= 3.731E-06 alpha_mix =  0.700 |ddv_scf|^2 =  9.738E-11

      iter #   6 total cpu time : 10528.7 secs   av.it.:  14.8
      thresh= 9.868E-07 alpha_mix =  0.700 |ddv_scf|^2 =  3.568E-13

      iter #   7 total cpu time : 10694.7 secs   av.it.:  15.4
      thresh= 5.974E-08 alpha_mix =  0.700 |ddv_scf|^2 =  7.061E-14

      iter #   8 total cpu time : 10843.3 secs   av.it.:  15.1
      thresh= 2.657E-08 alpha_mix =  0.700 |ddv_scf|^2 =  5.405E-15

      iter #   9 total cpu time : 10990.2 secs   av.it.:  15.7
      thresh= 7.352E-09 alpha_mix =  0.700 |ddv_scf|^2 =  6.251E-17

     End of self-consistent calculation

     Convergence has been achieved 


     Representation #   4 mode #   4

     Self-consistent Calculation

      iter #   1 total cpu time : 11054.6 secs   av.it.:   5.0
      thresh= 1.000E-02 alpha_mix =  0.700 |ddv_scf|^2 =  9.293E-09

      iter #   2 total cpu time : 11203.3 secs   av.it.:  15.7
      thresh= 9.640E-06 alpha_mix =  0.700 |ddv_scf|^2 =  4.767E-10

      iter #   3 total cpu time : 11385.6 secs   av.it.:  16.9
      thresh= 2.183E-06 alpha_mix =  0.700 |ddv_scf|^2 =  5.716E-10

      iter #   4 total cpu time : 11530.4 secs   av.it.:  15.7
      thresh= 2.391E-06 alpha_mix =  0.700 |ddv_scf|^2 =  1.929E-11

      iter #   5 total cpu time : 11689.6 secs   av.it.:  16.0
      thresh= 4.392E-07 alpha_mix =  0.700 |ddv_scf|^2 =  2.694E-12

      iter #   6 total cpu time : 11828.1 secs   av.it.:  16.0
      thresh= 1.641E-07 alpha_mix =  0.700 |ddv_scf|^2 =  1.457E-13

      iter #   7 total cpu time : 12018.5 secs   av.it.:  16.2
      thresh= 3.817E-08 alpha_mix =  0.700 |ddv_scf|^2 =  7.017E-15

      iter #   8 total cpu time : 12174.4 secs   av.it.:  16.1
      thresh= 8.377E-09 alpha_mix =  0.700 |ddv_scf|^2 =  6.036E-16

      iter #   9 total cpu time : 12348.9 secs   av.it.:  16.1
      thresh= 2.457E-09 alpha_mix =  0.700 |ddv_scf|^2 =  6.689E-17

     End of self-consistent calculation

     Convergence has been achieved 


     Representation #   5 mode #   5

     Self-consistent Calculation

      iter #   1 total cpu time : 12408.7 secs   av.it.:   5.0
      thresh= 1.000E-02 alpha_mix =  0.700 |ddv_scf|^2 =  9.707E-09

      iter #   2 total cpu time : 12558.7 secs   av.it.:  15.9
      thresh= 9.852E-06 alpha_mix =  0.700 |ddv_scf|^2 =  1.453E-09

      iter #   3 total cpu time : 12716.2 secs   av.it.:  16.5
      thresh= 3.812E-06 alpha_mix =  0.700 |ddv_scf|^2 =  1.533E-09

      iter #   4 total cpu time : 12880.6 secs   av.it.:  15.3
      thresh= 3.915E-06 alpha_mix =  0.700 |ddv_scf|^2 =  1.565E-11

      iter #   5 total cpu time : 13035.4 secs   av.it.:  16.4
      thresh= 3.956E-07 alpha_mix =  0.700 |ddv_scf|^2 =  9.244E-12

      iter #   6 total cpu time : 13192.0 secs   av.it.:  15.6
      thresh= 3.040E-07 alpha_mix =  0.700 |ddv_scf|^2 =  1.046E-13

      iter #   7 total cpu time : 13353.5 secs   av.it.:  16.1
      thresh= 3.234E-08 alpha_mix =  0.700 |ddv_scf|^2 =  7.558E-15

      iter #   8 total cpu time : 13507.0 secs   av.it.:  15.8
      thresh= 8.694E-09 alpha_mix =  0.700 |ddv_scf|^2 =  7.166E-16

      iter #   9 total cpu time : 13659.8 secs   av.it.:  16.1
      thresh= 2.677E-09 alpha_mix =  0.700 |ddv_scf|^2 =  6.575E-17

     End of self-consistent calculation

     Convergence has been achieved 


     Representation #   6 mode #   6

     Self-consistent Calculation

      iter #   1 total cpu time : 13743.3 secs   av.it.:   7.0
      thresh= 1.000E-02 alpha_mix =  0.700 |ddv_scf|^2 =  2.166E-07

      iter #   2 total cpu time : 13900.9 secs   av.it.:  16.3
      thresh= 4.654E-05 alpha_mix =  0.700 |ddv_scf|^2 =  3.481E-07

      iter #   3 total cpu time : 14055.6 secs   av.it.:  15.3
      thresh= 5.900E-05 alpha_mix =  0.700 |ddv_scf|^2 =  3.101E-09

      iter #   4 total cpu time : 14191.8 secs   av.it.:  15.8
      thresh= 5.569E-06 alpha_mix =  0.700 |ddv_scf|^2 =  6.899E-10

      iter #   5 total cpu time : 14342.2 secs   av.it.:  15.5
      thresh= 2.627E-06 alpha_mix =  0.700 |ddv_scf|^2 =  5.642E-12

      iter #   6 total cpu time : 14487.6 secs   av.it.:  16.0
      thresh= 2.375E-07 alpha_mix =  0.700 |ddv_scf|^2 =  4.851E-13

      iter #   7 total cpu time : 14639.9 secs   av.it.:  15.4
      thresh= 6.965E-08 alpha_mix =  0.700 |ddv_scf|^2 =  6.701E-14

      iter #   8 total cpu time : 14792.7 secs   av.it.:  15.3
      thresh= 2.589E-08 alpha_mix =  0.700 |ddv_scf|^2 =  2.195E-15

      iter #   9 total cpu time : 14944.3 secs   av.it.:  16.0
      thresh= 4.685E-09 alpha_mix =  0.700 |ddv_scf|^2 =  3.497E-16

      iter #  10 total cpu time : 15110.9 secs   av.it.:  15.9
      thresh= 1.870E-09 alpha_mix =  0.700 |ddv_scf|^2 =  5.344E-17

     End of self-consistent calculation

     Convergence has been achieved 


     Representation #   7 mode #   7

     Self-consistent Calculation

      iter #   1 total cpu time : 15166.6 secs   av.it.:   5.0
      thresh= 1.000E-02 alpha_mix =  0.700 |ddv_scf|^2 =  9.293E-09

      iter #   2 total cpu time : 15311.9 secs   av.it.:  15.7
      thresh= 9.640E-06 alpha_mix =  0.700 |ddv_scf|^2 =  4.767E-10

      iter #   3 total cpu time : 15491.7 secs   av.it.:  16.9
      thresh= 2.183E-06 alpha_mix =  0.700 |ddv_scf|^2 =  5.716E-10

      iter #   4 total cpu time : 15648.1 secs   av.it.:  15.7
      thresh= 2.391E-06 alpha_mix =  0.700 |ddv_scf|^2 =  1.929E-11

      iter #   5 total cpu time : 15801.5 secs   av.it.:  16.0
      thresh= 4.392E-07 alpha_mix =  0.700 |ddv_scf|^2 =  2.694E-12

      iter #   6 total cpu time : 15969.8 secs   av.it.:  16.0
      thresh= 1.641E-07 alpha_mix =  0.700 |ddv_scf|^2 =  1.457E-13

      iter #   7 total cpu time : 16142.2 secs   av.it.:  16.2
      thresh= 3.817E-08 alpha_mix =  0.700 |ddv_scf|^2 =  7.017E-15

      iter #   8 total cpu time : 16298.2 secs   av.it.:  16.1
      thresh= 8.377E-09 alpha_mix =  0.700 |ddv_scf|^2 =  6.036E-16

      iter #   9 total cpu time : 16467.5 secs   av.it.:  16.1
      thresh= 2.457E-09 alpha_mix =  0.700 |ddv_scf|^2 =  6.689E-17

     End of self-consistent calculation

     Convergence has been achieved 


     Representation #   8 mode #   8

     Self-consistent Calculation

      iter #   1 total cpu time : 16536.1 secs   av.it.:   5.0
      thresh= 1.000E-02 alpha_mix =  0.700 |ddv_scf|^2 =  9.707E-09

      iter #   2 total cpu time : 16685.3 secs   av.it.:  15.9
      thresh= 9.852E-06 alpha_mix =  0.700 |ddv_scf|^2 =  1.453E-09

      iter #   3 total cpu time : 16844.7 secs   av.it.:  16.5
      thresh= 3.812E-06 alpha_mix =  0.700 |ddv_scf|^2 =  1.533E-09

      iter #   4 total cpu time : 16991.0 secs   av.it.:  15.3
      thresh= 3.915E-06 alpha_mix =  0.700 |ddv_scf|^2 =  1.565E-11

      iter #   5 total cpu time : 17150.7 secs   av.it.:  16.4
      thresh= 3.956E-07 alpha_mix =  0.700 |ddv_scf|^2 =  9.244E-12

      iter #   6 total cpu time : 17309.6 secs   av.it.:  15.6
      thresh= 3.040E-07 alpha_mix =  0.700 |ddv_scf|^2 =  1.046E-13

      iter #   7 total cpu time : 17480.6 secs   av.it.:  16.1
      thresh= 3.234E-08 alpha_mix =  0.700 |ddv_scf|^2 =  7.558E-15

      iter #   8 total cpu time : 17628.1 secs   av.it.:  15.8
      thresh= 8.694E-09 alpha_mix =  0.700 |ddv_scf|^2 =  7.166E-16

      iter #   9 total cpu time : 17781.3 secs   av.it.:  16.1
      thresh= 2.677E-09 alpha_mix =  0.700 |ddv_scf|^2 =  6.575E-17

     End of self-consistent calculation

     Convergence has been achieved 


     Representation #   9 mode #   9

     Self-consistent Calculation

      iter #   1 total cpu time : 17859.3 secs   av.it.:   7.0
      thresh= 1.000E-02 alpha_mix =  0.700 |ddv_scf|^2 =  2.166E-07

      iter #   2 total cpu time : 18018.7 secs   av.it.:  16.3
      thresh= 4.654E-05 alpha_mix =  0.700 |ddv_scf|^2 =  3.481E-07

      iter #   3 total cpu time : 18174.4 secs   av.it.:  15.3
      thresh= 5.900E-05 alpha_mix =  0.700 |ddv_scf|^2 =  3.101E-09

      iter #   4 total cpu time : 18312.8 secs   av.it.:  15.8
      thresh= 5.569E-06 alpha_mix =  0.700 |ddv_scf|^2 =  6.899E-10

      iter #   5 total cpu time : 18461.3 secs   av.it.:  15.5
      thresh= 2.627E-06 alpha_mix =  0.700 |ddv_scf|^2 =  5.642E-12

      iter #   6 total cpu time : 18609.5 secs   av.it.:  16.0
      thresh= 2.375E-07 alpha_mix =  0.700 |ddv_scf|^2 =  4.851E-13

      iter #   7 total cpu time : 18770.9 secs   av.it.:  15.4
      thresh= 6.965E-08 alpha_mix =  0.700 |ddv_scf|^2 =  6.701E-14

      iter #   8 total cpu time : 18921.1 secs   av.it.:  15.3
      thresh= 2.589E-08 alpha_mix =  0.700 |ddv_scf|^2 =  2.195E-15

      iter #   9 total cpu time : 19077.0 secs   av.it.:  16.0
      thresh= 4.685E-09 alpha_mix =  0.700 |ddv_scf|^2 =  3.497E-16

      iter #  10 total cpu time : 19227.4 secs   av.it.:  15.9
      thresh= 1.870E-09 alpha_mix =  0.700 |ddv_scf|^2 =  5.344E-17

     End of self-consistent calculation

     Convergence has been achieved 


     Representation #  10 mode #  10

     Self-consistent Calculation

      iter #   1 total cpu time : 19341.2 secs   av.it.:   9.8
      thresh= 1.000E-02 alpha_mix =  0.700 |ddv_scf|^2 =  1.908E-06

      iter #   2 total cpu time : 19496.5 secs   av.it.:  16.0
      thresh= 1.381E-04 alpha_mix =  0.700 |ddv_scf|^2 =  1.701E-08

      iter #   3 total cpu time : 19660.9 secs   av.it.:  16.1
      thresh= 1.304E-05 alpha_mix =  0.700 |ddv_scf|^2 =  7.061E-10

      iter #   4 total cpu time : 19810.9 secs   av.it.:  16.1
      thresh= 2.657E-06 alpha_mix =  0.700 |ddv_scf|^2 =  8.891E-11

      iter #   5 total cpu time : 19959.8 secs   av.it.:  16.4
      thresh= 9.429E-07 alpha_mix =  0.700 |ddv_scf|^2 =  8.463E-11

      iter #   6 total cpu time : 20096.6 secs   av.it.:  15.7
      thresh= 9.199E-07 alpha_mix =  0.700 |ddv_scf|^2 =  3.716E-13

      iter #   7 total cpu time : 20270.2 secs   av.it.:  16.7
      thresh= 6.096E-08 alpha_mix =  0.700 |ddv_scf|^2 =  3.133E-13

      iter #   8 total cpu time : 20429.7 secs   av.it.:  15.9
      thresh= 5.597E-08 alpha_mix =  0.700 |ddv_scf|^2 =  5.880E-15

      iter #   9 total cpu time : 20585.5 secs   av.it.:  16.2
      thresh= 7.668E-09 alpha_mix =  0.700 |ddv_scf|^2 =  3.157E-16

      iter #  10 total cpu time : 20740.3 secs   av.it.:  16.0
      thresh= 1.777E-09 alpha_mix =  0.700 |ddv_scf|^2 =  2.172E-17

     End of self-consistent calculation

     Convergence has been achieved 


     Representation #  11 mode #  11

     Self-consistent Calculation

      iter #   1 total cpu time : 20843.2 secs   av.it.:   9.8
      thresh= 1.000E-02 alpha_mix =  0.700 |ddv_scf|^2 =  1.919E-06

      iter #   2 total cpu time : 21004.2 secs   av.it.:  16.0
      thresh= 1.385E-04 alpha_mix =  0.700 |ddv_scf|^2 =  2.059E-08

      iter #   3 total cpu time : 21152.9 secs   av.it.:  16.1
      thresh= 1.435E-05 alpha_mix =  0.700 |ddv_scf|^2 =  1.195E-09

      iter #   4 total cpu time : 21306.4 secs   av.it.:  16.1
      thresh= 3.457E-06 alpha_mix =  0.700 |ddv_scf|^2 =  1.086E-10

      iter #   5 total cpu time : 21467.9 secs   av.it.:  16.5
      thresh= 1.042E-06 alpha_mix =  0.700 |ddv_scf|^2 =  6.995E-11

      iter #   6 total cpu time : 21624.9 secs   av.it.:  15.9
      thresh= 8.364E-07 alpha_mix =  0.700 |ddv_scf|^2 =  6.862E-13

      iter #   7 total cpu time : 21776.6 secs   av.it.:  16.7
      thresh= 8.284E-08 alpha_mix =  0.700 |ddv_scf|^2 =  4.418E-13

      iter #   8 total cpu time : 21925.0 secs   av.it.:  15.8
      thresh= 6.647E-08 alpha_mix =  0.700 |ddv_scf|^2 =  3.991E-14

      iter #   9 total cpu time : 22087.1 secs   av.it.:  16.0
      thresh= 1.998E-08 alpha_mix =  0.700 |ddv_scf|^2 =  1.029E-15

      iter #  10 total cpu time : 22249.2 secs   av.it.:  16.1
      thresh= 3.208E-09 alpha_mix =  0.700 |ddv_scf|^2 =  3.131E-17

     End of self-consistent calculation

     Convergence has been achieved 


     Representation #  12 mode #  12

     Self-consistent Calculation

      iter #   1 total cpu time : 22359.2 secs   av.it.:  10.0
      thresh= 1.000E-02 alpha_mix =  0.700 |ddv_scf|^2 =  6.660E-06

      iter #   2 total cpu time : 22507.9 secs   av.it.:  15.4
      thresh= 2.581E-04 alpha_mix =  0.700 |ddv_scf|^2 =  1.355E-06

      iter #   3 total cpu time : 22643.5 secs   av.it.:  14.9
      thresh= 1.164E-04 alpha_mix =  0.700 |ddv_scf|^2 =  9.187E-09

      iter #   4 total cpu time : 22806.7 secs   av.it.:  16.4
      thresh= 9.585E-06 alpha_mix =  0.700 |ddv_scf|^2 =  6.897E-09

      iter #   5 total cpu time : 22958.1 secs   av.it.:  15.6
      thresh= 8.305E-06 alpha_mix =  0.700 |ddv_scf|^2 =  3.745E-11

      iter #   6 total cpu time : 23111.1 secs   av.it.:  16.2
      thresh= 6.120E-07 alpha_mix =  0.700 |ddv_scf|^2 =  2.359E-11

      iter #   7 total cpu time : 23254.9 secs   av.it.:  15.8
      thresh= 4.857E-07 alpha_mix =  0.700 |ddv_scf|^2 =  3.136E-12

      iter #   8 total cpu time : 23399.2 secs   av.it.:  15.4
      thresh= 1.771E-07 alpha_mix =  0.700 |ddv_scf|^2 =  4.395E-14

      iter #   9 total cpu time : 23551.4 secs   av.it.:  15.4
      thresh= 2.096E-08 alpha_mix =  0.700 |ddv_scf|^2 =  1.790E-15

      iter #  10 total cpu time : 23698.3 secs   av.it.:  15.3
      thresh= 4.231E-09 alpha_mix =  0.700 |ddv_scf|^2 =  4.953E-17

     End of self-consistent calculation

     Convergence has been achieved 


     Representation #  13 mode #  13

     Self-consistent Calculation

      iter #   1 total cpu time : 23802.8 secs   av.it.:   9.8
      thresh= 1.000E-02 alpha_mix =  0.700 |ddv_scf|^2 =  1.908E-06

      iter #   2 total cpu time : 23971.8 secs   av.it.:  16.0
      thresh= 1.381E-04 alpha_mix =  0.700 |ddv_scf|^2 =  1.701E-08

      iter #   3 total cpu time : 24124.9 secs   av.it.:  16.1
      thresh= 1.304E-05 alpha_mix =  0.700 |ddv_scf|^2 =  7.061E-10

      iter #   4 total cpu time : 24212.1 secs   av.it.:  16.1
      thresh= 2.657E-06 alpha_mix =  0.700 |ddv_scf|^2 =  8.891E-11

      iter #   5 total cpu time : 24286.7 secs   av.it.:  16.4
      thresh= 9.429E-07 alpha_mix =  0.700 |ddv_scf|^2 =  8.463E-11

      iter #   6 total cpu time : 24363.6 secs   av.it.:  15.7
      thresh= 9.199E-07 alpha_mix =  0.700 |ddv_scf|^2 =  3.716E-13

      iter #   7 total cpu time : 24452.7 secs   av.it.:  16.7
      thresh= 6.096E-08 alpha_mix =  0.700 |ddv_scf|^2 =  3.133E-13

      iter #   8 total cpu time : 24531.3 secs   av.it.:  15.9
      thresh= 5.597E-08 alpha_mix =  0.700 |ddv_scf|^2 =  5.880E-15

      iter #   9 total cpu time : 24615.2 secs   av.it.:  16.2
      thresh= 7.668E-09 alpha_mix =  0.700 |ddv_scf|^2 =  3.157E-16

      iter #  10 total cpu time : 24709.8 secs   av.it.:  16.0
      thresh= 1.777E-09 alpha_mix =  0.700 |ddv_scf|^2 =  2.172E-17

     End of self-consistent calculation

     Convergence has been achieved 


     Representation #  14 mode #  14

     Self-consistent Calculation

      iter #   1 total cpu time : 24766.5 secs   av.it.:   9.8
      thresh= 1.000E-02 alpha_mix =  0.700 |ddv_scf|^2 =  1.919E-06

      iter #   2 total cpu time : 24847.5 secs   av.it.:  16.0
      thresh= 1.385E-04 alpha_mix =  0.700 |ddv_scf|^2 =  2.059E-08

      iter #   3 total cpu time : 24920.8 secs   av.it.:  16.1
      thresh= 1.435E-05 alpha_mix =  0.700 |ddv_scf|^2 =  1.195E-09

      iter #   4 total cpu time : 25009.1 secs   av.it.:  16.1
      thresh= 3.457E-06 alpha_mix =  0.700 |ddv_scf|^2 =  1.086E-10

      iter #   5 total cpu time : 25088.3 secs   av.it.:  16.5
      thresh= 1.042E-06 alpha_mix =  0.700 |ddv_scf|^2 =  6.995E-11

      iter #   6 total cpu time : 25171.0 secs   av.it.:  15.9
      thresh= 8.364E-07 alpha_mix =  0.700 |ddv_scf|^2 =  6.862E-13

      iter #   7 total cpu time : 25247.9 secs   av.it.:  16.7
      thresh= 8.284E-08 alpha_mix =  0.700 |ddv_scf|^2 =  4.418E-13

      iter #   8 total cpu time : 25330.0 secs   av.it.:  15.8
      thresh= 6.647E-08 alpha_mix =  0.700 |ddv_scf|^2 =  3.991E-14

      iter #   9 total cpu time : 25410.6 secs   av.it.:  16.0
      thresh= 1.998E-08 alpha_mix =  0.700 |ddv_scf|^2 =  1.029E-15

      iter #  10 total cpu time : 25491.2 secs   av.it.:  16.1
      thresh= 3.208E-09 alpha_mix =  0.700 |ddv_scf|^2 =  3.131E-17

     End of self-consistent calculation

     Convergence has been achieved 


     Representation #  15 mode #  15

     Self-consistent Calculation

      iter #   1 total cpu time : 25544.7 secs   av.it.:  10.0
      thresh= 1.000E-02 alpha_mix =  0.700 |ddv_scf|^2 =  6.660E-06

      iter #   2 total cpu time : 25629.3 secs   av.it.:  15.4
      thresh= 2.581E-04 alpha_mix =  0.700 |ddv_scf|^2 =  1.355E-06

      iter #   3 total cpu time : 25700.2 secs   av.it.:  14.9
      thresh= 1.164E-04 alpha_mix =  0.700 |ddv_scf|^2 =  9.187E-09

      iter #   4 total cpu time : 25793.6 secs   av.it.:  16.4
      thresh= 9.585E-06 alpha_mix =  0.700 |ddv_scf|^2 =  6.897E-09

      iter #   5 total cpu time : 25871.0 secs   av.it.:  15.6
      thresh= 8.305E-06 alpha_mix =  0.700 |ddv_scf|^2 =  3.745E-11

      iter #   6 total cpu time : 25953.8 secs   av.it.:  16.2
      thresh= 6.120E-07 alpha_mix =  0.700 |ddv_scf|^2 =  2.359E-11

      iter #   7 total cpu time : 26043.8 secs   av.it.:  15.8
      thresh= 4.857E-07 alpha_mix =  0.700 |ddv_scf|^2 =  3.136E-12

      iter #   8 total cpu time : 26127.0 secs   av.it.:  15.4
      thresh= 1.771E-07 alpha_mix =  0.700 |ddv_scf|^2 =  4.395E-14

      iter #   9 total cpu time : 26201.1 secs   av.it.:  15.4
      thresh= 2.096E-08 alpha_mix =  0.700 |ddv_scf|^2 =  1.790E-15

      iter #  10 total cpu time : 26269.9 secs   av.it.:  15.3
      thresh= 4.231E-09 alpha_mix =  0.700 |ddv_scf|^2 =  4.953E-17

     End of self-consistent calculation

     Convergence has been achieved 

     Number of q in the star =    1
     List of q in the star:
          1   0.000000000   0.000000000   0.000000000

          Dielectric constant in cartesian axis 

          (       2.788259466      -0.000219999       0.000014722 )
          (      -0.000219999       2.763113220      -0.021468901 )
          (       0.000014723      -0.021468955       2.559890901 )

          Effective charges (d Force / dE) in cartesian axis

           atom      1   Ca 
      Ex  (        2.40340       -0.00015        0.00001 )
      Ey  (       -0.00017        2.40751       -0.01999 )
      Ez  (        0.00001       -0.01709        2.05488 )
           atom      2   H  
      Ex  (        0.41325        0.00459       -0.00379 )
      Ey  (        0.00496        0.37947       -0.02132 )
      Ez  (        0.00008       -0.02004        0.31124 )
           atom      3   H  
      Ex  (        0.41325       -0.00464        0.00380 )
      Ey  (       -0.00500        0.37947       -0.02132 )
      Ez  (       -0.00008       -0.02004        0.31124 )
           atom      4   O  
      Ex  (       -1.61597        0.00470       -0.00200 )
      Ey  (        0.00395       -1.58358        0.03122 )
      Ez  (       -0.00829        0.02848       -1.34004 )
           atom      5   O  
      Ex  (       -1.61597       -0.00401        0.00194 )
      Ey  (       -0.00323       -1.58357        0.03122 )
      Ez  (        0.00823        0.02847       -1.34004 )

     Diagonalizing the dynamical matrix

     q = (    0.000000000   0.000000000   0.000000000 ) 

 **************************************************************************
     freq (    1) =      -9.682332 [THz] =    -322.967837 [cm-1]
     freq (    2) =      -6.236884 [THz] =    -208.040041 [cm-1]
     freq (    3) =      -0.067931 [THz] =      -2.265923 [cm-1]
     freq (    4) =       0.032960 [THz] =       1.099426 [cm-1]
     freq (    5) =       0.103758 [THz] =       3.460981 [cm-1]
     freq (    6) =       6.965855 [THz] =     232.355927 [cm-1]
     freq (    7) =       7.083720 [THz] =     236.287464 [cm-1]
     freq (    8) =       8.438641 [THz] =     281.482771 [cm-1]
     freq (    9) =       8.545944 [THz] =     285.062000 [cm-1]
     freq (   10) =      10.227986 [THz] =     341.168883 [cm-1]
     freq (   11) =      11.045078 [THz] =     368.424148 [cm-1]
     freq (   12) =      15.662078 [THz] =     522.430700 [cm-1]
     freq (   13) =      17.904060 [THz] =     597.215172 [cm-1]
     freq (   14) =     117.342018 [THz] =    3914.108416 [cm-1]
     freq (   15) =     118.025582 [THz] =    3936.909640 [cm-1]
 **************************************************************************

     Mode symmetry, C_1 (1)     point group:

     freq (   1-   1) =       -323.0  [cm-1]   --> A               I+R
     freq (   2-   2) =       -208.0  [cm-1]   --> A               I+R
     freq (   3-   3) =         -2.3  [cm-1]   --> A               I+R
     freq (   4-   4) =          1.1  [cm-1]   --> A               I+R
     freq (   5-   5) =          3.5  [cm-1]   --> A               I+R
     freq (   6-   6) =        232.4  [cm-1]   --> A               I+R
     freq (   7-   7) =        236.3  [cm-1]   --> A               I+R
     freq (   8-   8) =        281.5  [cm-1]   --> A               I+R
     freq (   9-   9) =        285.1  [cm-1]   --> A               I+R
     freq (  10-  10) =        341.2  [cm-1]   --> A               I+R
     freq (  11-  11) =        368.4  [cm-1]   --> A               I+R
     freq (  12-  12) =        522.4  [cm-1]   --> A               I+R
     freq (  13-  13) =        597.2  [cm-1]   --> A               I+R
     freq (  14-  14) =       3914.1  [cm-1]   --> A               I+R
     freq (  15-  15) =       3936.9  [cm-1]   --> A               I+R

     PHONON       :      4h28m CPU      7h17m WALL

     INITIALIZATION: 
     phq_setup    :      0.07s CPU      0.16s WALL (       1 calls)
     phq_init     :     58.96s CPU    102.94s WALL (       1 calls)

     phq_init     :     58.96s CPU    102.94s WALL (       1 calls)
     set_drhoc    :      1.44s CPU      2.45s WALL (       3 calls)
     init_vloc    :      0.42s CPU      0.65s WALL (       1 calls)
     init_us_1    :      0.54s CPU      0.67s WALL (       1 calls)
     newd         :      0.19s CPU      0.29s WALL (       1 calls)
     dvanqq       :      1.77s CPU      3.18s WALL (       1 calls)
     drho         :     50.15s CPU     87.41s WALL (       1 calls)
     cmpt_qdipol  :      0.00s CPU      0.00s WALL (       1 calls)

     DIELECTRIC CONSTANT AND EFFECTIVE CHARGES:
     solve_e      :   3896.34s CPU   6496.71s WALL (       1 calls)
     dielec       :      0.04s CPU      0.14s WALL (       1 calls)
     zstar_eu     :    253.27s CPU    425.02s WALL (       1 calls)

     DYNAMICAL MATRIX:
     dynmat0      :      4.41s CPU      7.77s WALL (       1 calls)
     phqscf       :  11892.06s CPU  19237.73s WALL (       1 calls)
     dynmatrix    :      0.01s CPU      0.03s WALL (       1 calls)

     phqscf       :  11892.06s CPU  19237.73s WALL (       1 calls)
     solve_linter :  11865.92s CPU  19196.79s WALL (      15 calls)
     drhodv       :     26.05s CPU     40.57s WALL (      15 calls)

     dynmat0      :      4.41s CPU      7.77s WALL (       1 calls)
     dynmat_us    :      3.22s CPU      5.81s WALL (       1 calls)
     d2ionq       :      0.04s CPU      0.08s WALL (       1 calls)
     dynmatcc     :      1.05s CPU      1.75s WALL (       1 calls)

     dynmat_us    :      3.22s CPU      5.81s WALL (       1 calls)
     addusdynmat  :      0.00s CPU      0.00s WALL (       1 calls)

     phqscf       :  11892.06s CPU  19237.73s WALL (       1 calls)
     solve_linter :  11865.92s CPU  19196.79s WALL (      15 calls)

     solve_linter :  11865.92s CPU  19196.79s WALL (      15 calls)
     dvqpsi_us    :    103.44s CPU    171.78s WALL (    3360 calls)
     ortho        :    142.45s CPU    222.82s WALL (   20048 calls)
     cgsolve      :  14279.91s CPU  23287.16s WALL (   20048 calls)
     incdrhoscf   :    544.61s CPU    892.16s WALL (   20048 calls)
     addusddens   :     23.42s CPU     35.71s WALL (     158 calls)
     vpsifft      :    338.49s CPU    553.19s WALL (   14336 calls)
     dv_of_drho   :      6.51s CPU     10.23s WALL (     179 calls)
     mix_pot      :      2.33s CPU      4.36s WALL (     154 calls)
     psymdvscf    :      2.43s CPU      4.01s WALL (     143 calls)
     newdq        :     25.52s CPU     39.92s WALL (     154 calls)
     adddvscf     :     22.31s CPU     34.27s WALL (   17696 calls)
     drhodvus     :      0.09s CPU      0.19s WALL (      15 calls)

     dvqpsi_us    :    103.44s CPU    171.78s WALL (    3360 calls)
     dvqpsi_us_on :      8.66s CPU     13.72s WALL (    3360 calls)

     cgsolve      :  14279.91s CPU  23287.16s WALL (   20048 calls)
     ch_psi       :  12645.33s CPU  20570.20s WALL (  399492 calls)

     ch_psi       :  12645.33s CPU  20570.20s WALL (  399492 calls)
     h_psi        :   9625.14s CPU  15827.94s WALL (  399492 calls)
     last         :   2680.85s CPU   4253.93s WALL (  399492 calls)

     h_psi        :   9625.14s CPU  15827.94s WALL (  399492 calls)
     add_vuspsi   :    322.78s CPU    480.63s WALL (  399492 calls)

     incdrhoscf   :    544.61s CPU    892.16s WALL (   20048 calls)
     addusdbec    :     70.62s CPU    114.65s WALL (   21728 calls)

     drhodvus     :      0.09s CPU      0.19s WALL (      15 calls)

      General routines
     calbec       :   2573.48s CPU   4189.81s WALL (  889592 calls)
     fft          :     17.64s CPU     26.87s WALL (    3643 calls)
     ffts         :      7.13s CPU     11.30s WALL (    3971 calls)
     fftw         :   8918.46s CPU  14823.51s WALL ( 8726618 calls)
     davcio       :      7.85s CPU     13.88s WALL (   95782 calls)
     write_rec    :      1.01s CPU      2.50s WALL (     169 calls)


     PHONON       :      4h28m CPU      7h17m WALL


   This run was terminated on:  10:16:15   2Jul2026            

=------------------------------------------------------------------------------=
   JOB DONE.
=------------------------------------------------------------------------------=
