
     Program PWSCF v.6.7MaX starts on  1Jul2026 at 13:22:10 

     This program is part of the open-source Quantum ESPRESSO suite
     for quantum simulation of materials; please cite
         "P. Giannozzi et al., J. Phys.:Condens. Matter 21 395502 (2009);
         "P. Giannozzi et al., J. Phys.:Condens. Matter 29 465901 (2017);
          URL http://www.quantum-espresso.org", 
     in publications or presentations arising from this work. More details at
     http://www.quantum-espresso.org/quote

     Parallel version (MPI), running on     8 processors

     MPI processes distributed on     1 nodes
     K-points division:     npool     =       2
     R & G space division:  proc/nbgrp/npool/nimage =       4
     Waiting for input...
     Reading input from standard input

     Current dimensions of program PWSCF are:
     Max number of different atomic species (ntypx) = 10
     Max number of k-points (npk) =  40000
     Max angular momentum in pseudopotentials (lmaxx) =  3
     file Ca.pbe-spn-kjpaw_psl.1.0.0.UPF: wavefunction(s)  3S renormalized
     file O.pbe-n-kjpaw_psl.0.1.UPF: wavefunction(s)  2P renormalized

     Subspace diagonalization in iterative solution of the eigenvalue problem:
     one sub-group per band group will be used
     scalapack distributed-memory algorithm (size of sub-group:  2*  2 procs)

     Message from routine setup:
     using ibrav=0 with symmetry is DISCOURAGED, use correct ibrav instead

     Parallelization info
     --------------------
     sticks:   dense  smooth     PW     G-vecs:    dense   smooth      PW
     Min         317     159     49                12223     4322     746
     Max         319     160     50                12225     4327     749
     Sum        1273     637    199                48895    17295    2991



     bravais-lattice index     =            0
     lattice parameter (alat)  =       6.7798  a.u.
     unit-cell volume          =     361.6405 (a.u.)^3
     number of atoms/cell      =            5
     number of atomic types    =            3
     number of electrons       =        24.00
     number of Kohn-Sham states=           16
     kinetic-energy cutoff     =      50.0000  Ry
     charge density cutoff     =     400.0000  Ry
     scf convergence threshold =      1.0E-08
     mixing beta               =       0.3000
     number of iterations used =            8  plain     mixing
     energy convergence thresh.=      1.0E-05
     force convergence thresh. =      1.0E-04
     press convergence thresh. =      5.0E-01
     Exchange-correlation= SLA  PW   PBX  PBC
                           (   1   4   3   4   0   0   0)
     nstep                     =           50


     celldm(1)=   6.779801  celldm(2)=   0.000000  celldm(3)=   0.000000
     celldm(4)=   0.000000  celldm(5)=   0.000000  celldm(6)=   0.000000

     crystal axes: (cart. coord. in units of alat)
               a(1) = (   0.500014   0.864805  -0.045805 )  
               a(2) = (  -0.500014   0.864805  -0.045805 )  
               a(3) = (  -0.000000   0.103464   1.336345 )  

     reciprocal axes: (cart. coord. in units 2 pi/alat)
               b(1) = (  0.999972  0.575804 -0.044581 )  
               b(2) = ( -0.999972  0.575804 -0.044581 )  
               b(3) = (  0.000000  0.039473  0.745254 )  


     PseudoPot. # 1 for Ca read from file:
     /data/pseudopotentials/Ca.pbe-spn-kjpaw_psl.1.0.0.UPF
     MD5 check sum: 1e11ab70c77b02a7d7d676f41d47b751
     Pseudo is Projector augmented-wave + core cor, Zval = 10.0
     Generated using &quot;atomic&quot; code by A. Dal Corso  v.6.4.1
     Shape of augmentation charge: PSQ
     Using radial grid of 1169 points,  6 beta functions with: 
                l(1) =   0
                l(2) =   0
                l(3) =   1
                l(4) =   1
                l(5) =   2
                l(6) =   2
     Q(r) pseudized with 0 coefficients 


     PseudoPot. # 2 for H  read from file:
     /data/pseudopotentials/h_pbe_v1.4.uspp.F.UPF
     MD5 check sum: 761ae9a214b05c3daf00ab9f6b793d6f
     Pseudo is Ultrasoft, Zval =  1.0
     Generated by new atomic code, or converted to UPF format
     Using radial grid of  615 points,  2 beta functions with: 
                l(1) =   0
                l(2) =   0
     Q(r) pseudized with  8 coefficients,  rinner =    0.700

     PseudoPot. # 3 for O  read from file:
     /data/pseudopotentials/O.pbe-n-kjpaw_psl.0.1.UPF
     MD5 check sum: 833c495a5d0f9b75bf046115549bffff
     Pseudo is Projector augmented-wave + core cor, Zval =  6.0
     Generated using &quot;atomic&quot; code by A. Dal Corso  v.6.3
     Shape of augmentation charge: BESSEL
     Using radial grid of 1095 points,  4 beta functions with: 
                l(1) =   0
                l(2) =   0
                l(3) =   1
                l(4) =   1
     Q(r) pseudized with 0 coefficients 


     atomic species   valence    mass     pseudopotential
        Ca            10.00    40.07800     Ca( 1.00)
        H              1.00     1.00800     H ( 1.00)
        O              6.00    15.99900     O ( 1.00)

      2 Sym. Ops. (no inversion) found



   Cartesian axes

     site n.     atom                  positions (alat units)
         1           Ca  tau(   1) = (  -0.4142703   0.8648051  -0.0458051  )
         2           H   tau(   2) = (   0.0943492   1.2215535   0.6867368  )
         3           H   tau(   3) = (   0.0943492   0.6115209   0.5579975  )
         4           O   tau(   4) = (   0.0858317   1.2402749   0.9551872  )
         5           O   tau(   5) = (   0.0858317   0.5927995   0.2895471  )

     number of k points=    24  Gaussian smearing, width (Ry)=  0.0050
                       cart. coord. in units 2pi/alat
        k(    1) = (   0.0000000   0.0000000   0.0000000), wk =   0.0312500
        k(    2) = (   0.0000000   0.0098682   0.1863135), wk =   0.0625000
        k(    3) = (   0.0000000  -0.0197365  -0.3726270), wk =   0.0312500
        k(    4) = (  -0.2499930   0.1439509  -0.0111451), wk =   0.1250000
        k(    5) = (  -0.2499930   0.1538192   0.1751683), wk =   0.1250000
        k(    6) = (  -0.2499930   0.1242144  -0.3837721), wk =   0.1250000
        k(    7) = (  -0.2499930   0.1340827  -0.1974586), wk =   0.1250000
        k(    8) = (   0.4999860  -0.2879019   0.0222903), wk =   0.0625000
        k(    9) = (   0.4999860  -0.2780336   0.2086038), wk =   0.1250000
        k(   10) = (   0.4999860  -0.3076383  -0.3503367), wk =   0.0625000
        k(   11) = (   0.0000000   0.2879019  -0.0222903), wk =   0.0625000
        k(   12) = (   0.0000000   0.2977701   0.1640232), wk =   0.0625000
        k(   13) = (   0.0000000   0.2681654  -0.3949172), wk =   0.0625000
        k(   14) = (   0.0000000   0.2780336  -0.2086038), wk =   0.0625000
        k(   15) = (   0.7499789  -0.1439509   0.0111451), wk =   0.1250000
        k(   16) = (   0.7499789  -0.1340827   0.1974586), wk =   0.1250000
        k(   17) = (   0.7499789  -0.1636874  -0.3614818), wk =   0.1250000
        k(   18) = (   0.7499789  -0.1538192  -0.1751683), wk =   0.1250000
        k(   19) = (   0.4999860   0.0000000   0.0000000), wk =   0.0625000
        k(   20) = (   0.4999860   0.0098682   0.1863135), wk =   0.1250000
        k(   21) = (   0.4999860  -0.0197365  -0.3726270), wk =   0.0625000
        k(   22) = (   0.0000000  -0.5758037   0.0445806), wk =   0.0312500
        k(   23) = (   0.0000000  -0.5659355   0.2308941), wk =   0.0625000
        k(   24) = (   0.0000000  -0.5955402  -0.3280464), wk =   0.0312500

     Dense  grid:    48895 G-vectors     FFT dimensions: (  45,  45,  60)

     Smooth grid:    17295 G-vectors     FFT dimensions: (  32,  32,  45)

     Estimated max dynamical RAM per process >      38.30 MB

     Estimated total dynamical RAM >     306.42 MB

     Check: negative core charge=   -0.000003

     Initial potential from superposition of free atoms

     starting charge   23.99512, renormalised to   24.00000
     Starting wfcs are   18 randomized atomic wfcs
     Checking if some PAW data can be deallocated... 

     total cpu time spent up to now is        6.8 secs

     Self-consistent Calculation

     iteration #  1     ecut=    50.00 Ry     beta= 0.30
     Davidson diagonalization with overlap
     ethr =  1.00E-02,  avg # of iterations =  8.0

     total cpu time spent up to now is        9.9 secs

     total energy              =    -219.40563735 Ry
     estimated scf accuracy    <       1.01593554 Ry

     iteration #  2     ecut=    50.00 Ry     beta= 0.30
     Davidson diagonalization with overlap
     ethr =  4.23E-03,  avg # of iterations =  2.0

     total cpu time spent up to now is       12.3 secs

     total energy              =    -219.55315478 Ry
     estimated scf accuracy    <       0.06823745 Ry

     iteration #  3     ecut=    50.00 Ry     beta= 0.30
     Davidson diagonalization with overlap
     ethr =  2.84E-04,  avg # of iterations =  8.7

     total cpu time spent up to now is       18.3 secs

     total energy              =    -219.57977147 Ry
     estimated scf accuracy    <       0.02745547 Ry

     iteration #  4     ecut=    50.00 Ry     beta= 0.30
     Davidson diagonalization with overlap
     ethr =  1.14E-04,  avg # of iterations =  4.7

     total cpu time spent up to now is       21.3 secs

     total energy              =    -219.58537815 Ry
     estimated scf accuracy    <       0.01282773 Ry

     iteration #  5     ecut=    50.00 Ry     beta= 0.30
     Davidson diagonalization with overlap
     ethr =  5.34E-05,  avg # of iterations =  3.0

     total cpu time spent up to now is       23.4 secs

     total energy              =    -219.58462531 Ry
     estimated scf accuracy    <       0.00244483 Ry

     iteration #  6     ecut=    50.00 Ry     beta= 0.30
     Davidson diagonalization with overlap
     c_bands:  1 eigenvalues not converged
     c_bands:  1 eigenvalues not converged
     c_bands:  1 eigenvalues not converged
     c_bands:  1 eigenvalues not converged
     ethr =  1.02E-05,  avg # of iterations = 10.7

     total cpu time spent up to now is       26.0 secs

     total energy              =    -219.58571448 Ry
     estimated scf accuracy    <       0.00177762 Ry

     iteration #  7     ecut=    50.00 Ry     beta= 0.30
     Davidson diagonalization with overlap
     c_bands:  1 eigenvalues not converged
     ethr =  7.41E-06,  avg # of iterations =  5.5

     total cpu time spent up to now is       28.1 secs

     total energy              =    -219.58616562 Ry
     estimated scf accuracy    <       0.00001806 Ry

     iteration #  8     ecut=    50.00 Ry     beta= 0.30
     Davidson diagonalization with overlap
     c_bands:  1 eigenvalues not converged
     ethr =  7.52E-08,  avg # of iterations =  9.9

     total cpu time spent up to now is       33.0 secs

     total energy              =    -219.58620235 Ry
     estimated scf accuracy    <       0.00000510 Ry

     iteration #  9     ecut=    50.00 Ry     beta= 0.30
     Davidson diagonalization with overlap
     ethr =  2.12E-08,  avg # of iterations =  4.2

     total cpu time spent up to now is       35.2 secs

     total energy              =    -219.58620315 Ry
     estimated scf accuracy    <       0.00000124 Ry

     iteration # 10     ecut=    50.00 Ry     beta= 0.30
     Davidson diagonalization with overlap
     ethr =  5.15E-09,  avg # of iterations =  2.7

     total cpu time spent up to now is       37.4 secs

     total energy              =    -219.58620230 Ry
     estimated scf accuracy    <       0.00000167 Ry

     iteration # 11     ecut=    50.00 Ry     beta= 0.30
     Davidson diagonalization with overlap
     ethr =  5.15E-09,  avg # of iterations =  3.6

     total cpu time spent up to now is       40.1 secs

     total energy              =    -219.58620288 Ry
     estimated scf accuracy    <       0.00000012 Ry

     iteration # 12     ecut=    50.00 Ry     beta= 0.30
     Davidson diagonalization with overlap
     c_bands:  2 eigenvalues not converged
     ethr =  5.15E-10,  avg # of iterations =  5.0

     total cpu time spent up to now is       43.2 secs

     total energy              =    -219.58620290 Ry
     estimated scf accuracy    <       0.00000013 Ry

     iteration # 13     ecut=    50.00 Ry     beta= 0.30
     Davidson diagonalization with overlap
     ethr =  5.15E-10,  avg # of iterations =  1.1

     total cpu time spent up to now is       45.1 secs

     total energy              =    -219.58620288 Ry
     estimated scf accuracy    <       0.00000005 Ry

     iteration # 14     ecut=    50.00 Ry     beta= 0.30
     Davidson diagonalization with overlap
     c_bands:  1 eigenvalues not converged
     ethr =  1.89E-10,  avg # of iterations =  3.3

     total cpu time spent up to now is       47.4 secs

     End of self-consistent calculation

          k = 0.0000 0.0000 0.0000 (  2187 PWs)   bands (ev):

   -34.0032 -15.5176 -14.9067 -14.9040 -14.2666 -13.0466  -2.3419  -0.2831
     1.9805   2.0301   3.1252   3.1658   7.4699  10.6536  11.0880  11.5199

          k = 0.0000 0.0099 0.1863 (  2174 PWs)   bands (ev):

   -34.0030 -15.5959 -14.9064 -14.9036 -14.0578 -13.1868  -2.1056  -0.6686
     2.0746   2.0931   3.0381   3.0405   8.1414  10.4903  10.9898  11.0017

          k = 0.0000-0.0197-0.3726 (  2164 PWs)   bands (ev):

   -34.0029 -15.6624 -14.9061 -14.9033 -13.7471 -13.4405  -1.5806  -1.3297
     2.1683   2.2018   2.8788   2.9434   9.0882  10.3338  10.9068  10.9159

          k =-0.2500 0.1440-0.0111 (  2162 PWs)   bands (ev):

   -33.9838 -15.4982 -15.3088 -14.9460 -13.7224 -13.2746  -1.9131  -0.6378
     1.9173   2.1655   2.2528   2.8898   8.8820   9.8654  10.6913  11.6025

          k =-0.2500 0.1538 0.1752 (  2173 PWs)   bands (ev):

   -33.9837 -15.5312 -15.2915 -14.9457 -13.5558 -13.4306  -1.7570  -0.9768
     2.0349   2.3498   2.3697   2.6513   9.2708   9.8429  11.2537  11.6025

          k =-0.2500 0.1242-0.3838 (  2165 PWs)   bands (ev):

   -33.9835 -15.5044 -15.3290 -14.9453 -13.6416 -13.3285  -1.5415  -1.4114
     2.1893   2.2501   2.4465   2.8287   9.5390  10.3375  10.9194  11.5122

          k =-0.2500 0.1341-0.1975 (  2160 PWs)   bands (ev):

   -33.9837 -15.4526 -15.3657 -14.9456 -13.7549 -13.2252  -1.8684  -0.9284
     2.0719   2.1324   2.3669   2.9950   9.0501  10.3048  10.5744  11.5102

          k = 0.5000-0.2879 0.0223 (  2154 PWs)   bands (ev):

   -33.9643 -15.8123 -15.0702 -14.9856 -13.7908 -13.1871  -1.2487  -1.2068
     1.2049   2.2877   2.4283   2.5404   9.1476  10.5193  10.9802  12.6175

          k = 0.5000-0.2780 0.2086 (  2155 PWs)   bands (ev):

   -33.9642 -15.7933 -15.0760 -14.9852 -13.8606 -13.1323  -1.4958  -1.1655
     1.5085   2.2260   2.2976   2.7411   9.5149  10.6393  11.1837  12.2044

          k = 0.5000-0.3076-0.3503 (  2158 PWs)   bands (ev):

   -33.9640 -15.7738 -15.0814 -14.9846 -13.9235 -13.0853  -1.6580  -1.1867
     1.8918   2.1269   2.1990   2.8443   9.9747  10.8689  11.8174  11.9931

          k = 0.0000 0.2879-0.0223 (  2161 PWs)   bands (ev):

   -33.9838 -15.5090 -15.3044 -14.9440 -13.7129 -13.2793  -1.9186  -0.6290
     1.9120   2.1354   2.2816   2.9106   8.8839   9.8529  10.6516  11.6115

          k = 0.0000 0.2978 0.1640 (  2171 PWs)   bands (ev):

   -33.9836 -15.4538 -15.3642 -14.9436 -13.7691 -13.2142  -1.8893  -0.8978
     2.0558   2.1373   2.3764   3.0016   9.0233  10.2981  10.6459  11.5189

          k = 0.0000 0.2682-0.3949 (  2170 PWs)   bands (ev):

   -33.9835 -15.4996 -15.3344 -14.9433 -13.6695 -13.3033  -1.5596  -1.3634
     2.1994   2.2489   2.4222   2.8063   9.5198  10.3384  10.9531  11.5175

          k = 0.0000 0.2780-0.2086 (  2157 PWs)   bands (ev):

   -33.9836 -15.5367 -15.2930 -14.9436 -13.5477 -13.4336  -1.7332  -0.9741
     2.0208   2.3428   2.3749   2.6349   9.3002   9.7986  11.2142  11.6078

          k = 0.7500-0.1440 0.0111 (  2153 PWs)   bands (ev):

   -33.9643 -15.6469 -15.2903 -15.0560 -13.4668 -13.3834  -1.4458  -1.0187
     1.5036   1.9893   2.0879   2.8977   9.9249  10.0540  10.2804  12.2008

          k = 0.7500-0.1341 0.1975 (  2148 PWs)   bands (ev):

   -33.9641 -15.6273 -15.2949 -15.0590 -13.5563 -13.3130  -1.4748  -1.1419
     1.7282   2.0200   2.2199   2.7125  10.1772  10.3542  10.6953  12.1410

          k = 0.7500-0.1637-0.3615 (  2158 PWs)   bands (ev):

   -33.9640 -15.5980 -15.3106 -15.0619 -13.6387 -13.2467  -1.4907  -1.2698
     1.9468   2.2561   2.3080   2.3657  10.5662  10.9428  11.0474  11.7587

          k = 0.7500-0.1538-0.1752 (  2158 PWs)   bands (ev):

   -33.9641 -15.6197 -15.3038 -15.0592 -13.5912 -13.2747  -1.4725  -1.1487
     1.7274   2.0251   2.1957   2.7385  10.1762  10.3858  10.6390  12.1024

          k = 0.5000 0.0000 0.0000 (  2156 PWs)   bands (ev):

   -33.9643 -15.6377 -15.2944 -15.0582 -13.4829 -13.3708  -1.4145  -1.0563
     1.5204   1.9845   2.0875   2.8751   9.9387  10.0784  10.2771  12.2100

          k = 0.5000 0.0099 0.1863 (  2156 PWs)   bands (ev):

   -33.9642 -15.6190 -15.3012 -15.0612 -13.5613 -13.3067  -1.4493  -1.1906
     1.7443   2.0214   2.2174   2.7176  10.1750  10.3833  10.6655  12.1251

          k = 0.5000-0.0197-0.3726 (  2154 PWs)   bands (ev):

   -33.9641 -15.5988 -15.3096 -15.0638 -13.6127 -13.2698  -1.4696  -1.3244
     1.9319   2.2904   2.3320   2.3650  10.5547  10.9547  11.0108  11.7385

          k = 0.0000-0.5758 0.0446 (  2158 PWs)   bands (ev):

   -33.9642 -15.8267 -15.0699 -14.9837 -13.7379 -13.2296  -1.3174  -1.1106
     1.1690   2.3413   2.4050   2.5492   9.1177  10.4899  10.9422  12.2330

          k = 0.0000-0.5659 0.2309 (  2153 PWs)   bands (ev):

   -33.9641 -15.7980 -15.0750 -14.9832 -13.8702 -13.1216  -1.5244  -1.0938
     1.4636   2.2125   2.3202   2.7438   9.5091  10.6637  11.1267  12.2096

          k = 0.0000-0.5955-0.3280 (  2162 PWs)   bands (ev):

   -33.9640 -15.7678 -15.0801 -14.9828 -13.9762 -13.0415  -1.6794  -1.1112
     1.8590   2.1056   2.1833   2.8482   9.9794  10.9833  11.8357  11.8794

     the Fermi energy is     6.8920 ev

!    total energy              =    -219.58620289 Ry
     estimated scf accuracy    <          2.0E-10 Ry
     smearing contrib. (-TS)   =      -0.00000000 Ry
     internal energy E=F+TS    =    -219.58620289 Ry

     The total energy is F=E-TS. E is the sum of the following terms:
     one-electron contribution =     -59.58266312 Ry
     hartree contribution      =      40.49855750 Ry
     xc contribution           =     -28.67985185 Ry
     ewald contribution        =     -92.81782823 Ry
     one-center paw contrib.   =     -79.00441719 Ry

     convergence has been achieved in  14 iterations

     Forces acting on atoms (cartesian axes, Ry/au):

     atom    1 type  1   force =     0.00081018    0.00000000    0.00000000
     atom    2 type  2   force =     0.00039264   -0.00194346   -0.02375946
     atom    3 type  2   force =     0.00039264    0.00194346    0.02375946
     atom    4 type  3   force =    -0.00079773    0.00140721    0.02523151
     atom    5 type  3   force =    -0.00079773   -0.00140721   -0.02523151

     Total force =     0.049153     Total SCF correction =     0.000018


     Computing stress (Cartesian axis) and pressure

          total   stress  (Ry/bohr**3)                   (kbar)     P=       25.83
   0.00009218   0.00000000   0.00000000           13.56        0.00        0.00
   0.00000000   0.00009923   0.00000643            0.00       14.60        0.95
   0.00000000   0.00000643   0.00033527            0.00        0.95       49.32


     BFGS Geometry Optimization
     Energy error            =      0.0E+00
     Gradient error          =      2.5E-02
     Cell gradient error     =      3.4E-04


     number of scf cycles    =   1
     number of bfgs steps    =   0

     enthalpy new            =    -219.5862028928 Ry

     new trust radius        =       0.0318846765 bohr
     new conv_thr            =       0.0000000100 Ry

     new unit-cell volume =    366.41890 a.u.^3 (    54.29768 Ang^3 )
     density =      2.26589 g/cm^3

CELL_PARAMETERS (angstrom)
   1.798042850   3.110346292  -0.165214690
  -1.798042850   3.110346292  -0.165214690
   0.000000000   0.372891126   4.834670313

ATOMIC_POSITIONS (angstrom)
Ca           -1.4892800010        3.1103462923       -0.1652146897
H             0.3394866200        4.3928227401        2.4724933792
H             0.3394866200        2.2007609709        2.0317475543
O             0.3082262845        4.4620928555        3.4698431878
O             0.3082262845        2.1314908555        1.0343977456



     Writing output data file ./out/H2CaO2.save/
     NEW-OLD atomic charge density approx. for the potential

     Check: negative core charge=   -0.000003
     extrapolated charge   24.31291, renormalised to   24.00000

     total cpu time spent up to now is       58.2 secs

     Self-consistent Calculation

     iteration #  1     ecut=    50.00 Ry     beta= 0.30
     Davidson diagonalization with overlap
     ethr =  1.00E-06,  avg # of iterations = 12.7

     total cpu time spent up to now is       64.2 secs

     total energy              =    -219.56841761 Ry
     estimated scf accuracy    <       0.02024493 Ry

     iteration #  2     ecut=    50.00 Ry     beta= 0.30
     Davidson diagonalization with overlap
     ethr =  8.44E-05,  avg # of iterations =  3.2

     total cpu time spent up to now is       67.4 secs

     total energy              =    -219.58629936 Ry
     estimated scf accuracy    <       0.01126897 Ry

     iteration #  3     ecut=    50.00 Ry     beta= 0.30
     Davidson diagonalization with overlap
     ethr =  4.70E-05,  avg # of iterations =  2.1

     total cpu time spent up to now is       70.4 secs

     total energy              =    -219.58344285 Ry
     estimated scf accuracy    <       0.00494850 Ry

     iteration #  4     ecut=    50.00 Ry     beta= 0.30
     Davidson diagonalization with overlap
     ethr =  2.06E-05,  avg # of iterations =  3.0

     total cpu time spent up to now is       74.5 secs

     total energy              =    -219.58509605 Ry
     estimated scf accuracy    <       0.00095555 Ry

     iteration #  5     ecut=    50.00 Ry     beta= 0.30
     Davidson diagonalization with overlap
     ethr =  3.98E-06,  avg # of iterations =  5.9

     total cpu time spent up to now is       78.5 secs

     total energy              =    -219.58531179 Ry
     estimated scf accuracy    <       0.00045059 Ry

     iteration #  6     ecut=    50.00 Ry     beta= 0.30
     Davidson diagonalization with overlap
     ethr =  1.88E-06,  avg # of iterations =  3.3

     total cpu time spent up to now is       81.7 secs

     total energy              =    -219.58549369 Ry
     estimated scf accuracy    <       0.00012751 Ry

     iteration #  7     ecut=    50.00 Ry     beta= 0.30
     Davidson diagonalization with overlap
     ethr =  5.31E-07,  avg # of iterations =  1.4

     total cpu time spent up to now is       83.9 secs

     total energy              =    -219.58549431 Ry
     estimated scf accuracy    <       0.00003479 Ry

     iteration #  8     ecut=    50.00 Ry     beta= 0.30
     Davidson diagonalization with overlap
     ethr =  1.45E-07,  avg # of iterations =  2.3

     total cpu time spent up to now is       85.9 secs

     total energy              =    -219.58549271 Ry
     estimated scf accuracy    <       0.00001163 Ry

     iteration #  9     ecut=    50.00 Ry     beta= 0.30
     Davidson diagonalization with overlap
     ethr =  4.85E-08,  avg # of iterations =  4.2

     total cpu time spent up to now is       88.6 secs

     total energy              =    -219.58549706 Ry
     estimated scf accuracy    <       0.00000005 Ry

     iteration # 10     ecut=    50.00 Ry     beta= 0.30
     Davidson diagonalization with overlap
     ethr =  1.92E-10,  avg # of iterations =  8.8

     total cpu time spent up to now is       94.4 secs

     total energy              =    -219.58549739 Ry
     estimated scf accuracy    <       0.00000068 Ry

     iteration # 11     ecut=    50.00 Ry     beta= 0.30
     Davidson diagonalization with overlap
     ethr =  1.92E-10,  avg # of iterations =  4.3

     total cpu time spent up to now is       96.4 secs

     total energy              =    -219.58549734 Ry
     estimated scf accuracy    <       0.00000013 Ry

     iteration # 12     ecut=    50.00 Ry     beta= 0.30
     Davidson diagonalization with overlap
     ethr =  1.92E-10,  avg # of iterations =  5.0

     total cpu time spent up to now is      101.4 secs

     total energy              =    -219.58549740 Ry
     estimated scf accuracy    <       0.00000008 Ry

     iteration # 13     ecut=    50.00 Ry     beta= 0.30
     Davidson diagonalization with overlap
     ethr =  1.92E-10,  avg # of iterations =  2.0

     total cpu time spent up to now is      103.2 secs

     total energy              =    -219.58549739 Ry
     estimated scf accuracy    <       0.00000002 Ry

     iteration # 14     ecut=    50.00 Ry     beta= 0.30
     Davidson diagonalization with overlap
     ethr =  8.21E-11,  avg # of iterations =  3.2

     total cpu time spent up to now is      106.1 secs

     End of self-consistent calculation

          k = 0.0000 0.0000 0.0000 (  2187 PWs)   bands (ev):

   -34.1151 -15.5923 -15.0204 -15.0177 -14.1531 -12.9864  -2.3777  -0.2506
     1.9046   1.9500   3.0409   3.0775   7.2259  10.5463  10.9748  11.2386

          k = 0.0000 0.0098 0.1848 (  2174 PWs)   bands (ev):

   -34.1149 -15.6552 -15.0201 -15.0174 -13.9619 -13.1248  -2.1306  -0.6575
     1.9922   2.0087   2.9584   2.9618   7.9104  10.3246  10.8790  10.8930

          k = 0.0000-0.0196-0.3695 (  2164 PWs)   bands (ev):

   -34.1147 -15.7107 -15.0199 -15.0171 -13.6664 -13.3749  -1.5277  -1.4049
     2.0776   2.1079   2.8123   2.8724   8.8652  10.1587  10.7998  10.8113

          k =-0.2494 0.1436-0.0111 (  2162 PWs)   bands (ev):

   -34.0962 -15.5664 -15.3934 -15.0589 -13.6464 -13.2061  -1.9471  -0.6109
     1.8416   2.0878   2.1654   2.8056   8.6271   9.7211  10.5375  11.4847

          k =-0.2494 0.1534 0.1737 (  2173 PWs)   bands (ev):

   -34.0960 -15.5933 -15.3805 -15.0587 -13.4861 -13.3574  -1.7869  -0.9633
     1.9630   2.2633   2.2801   2.5847   9.0098   9.7121  11.1069  11.4834

          k =-0.2494 0.1240-0.3806 (  2165 PWs)   bands (ev):

   -34.0959 -15.5707 -15.4118 -15.0583 -13.5647 -13.2649  -1.5777  -1.3959
     2.1153   2.1809   2.3631   2.7451   9.2788  10.2078  10.7487  11.3967

          k =-0.2494 0.1338-0.1958 (  2160 PWs)   bands (ev):

   -34.0960 -15.5312 -15.4377 -15.0586 -13.6769 -13.1614  -1.8977  -0.9137
     2.0007   2.0590   2.2851   2.9041   8.7947  10.1597  10.4181  11.3958

          k = 0.4988-0.2872 0.0222 (  2154 PWs)   bands (ev):

   -34.0772 -15.8759 -15.1812 -15.0978 -13.6890 -13.1164  -1.2742  -1.1916
     1.1343   2.1973   2.3591   2.4507   9.0557  10.3065  10.5925  12.4438

          k = 0.4988-0.2774 0.2069 (  2155 PWs)   bands (ev):

   -34.0771 -15.8600 -15.1863 -15.0974 -13.7550 -13.0625  -1.5118  -1.1673
     1.4395   2.1599   2.2199   2.6476   9.4166  10.3750  10.8544  12.0772

          k = 0.4988-0.3068-0.3474 (  2158 PWs)   bands (ev):

   -34.0770 -15.8438 -15.1911 -15.0969 -13.8136 -13.0165  -1.6757  -1.1928
     1.8151   2.0656   2.1407   2.7462   9.8824  10.5305  11.4854  11.8109

          k = 0.0000 0.2872-0.0222 (  2161 PWs)   bands (ev):

   -34.0962 -15.5755 -15.3903 -15.0569 -13.6374 -13.2109  -1.9539  -0.6001
     1.8367   2.0606   2.1949   2.8245   8.6253   9.7047  10.4986  11.4941

          k = 0.0000 0.2970 0.1626 (  2171 PWs)   bands (ev):

   -34.0960 -15.5325 -15.4367 -15.0566 -13.6899 -13.1508  -1.9200  -0.8810
     1.9862   2.0637   2.2963   2.9094   8.7681  10.1508  10.4896  11.4051

          k = 0.0000 0.2676-0.3917 (  2170 PWs)   bands (ev):

   -34.0959 -15.5669 -15.4166 -15.0563 -13.5914 -13.2405  -1.5966  -1.3464
     2.1246   2.1800   2.3402   2.7227   9.2619  10.2066  10.7869  11.4031

          k = 0.0000 0.2774-0.2069 (  2157 PWs)   bands (ev):

   -34.0960 -15.5980 -15.3823 -15.0566 -13.4780 -13.3612  -1.7655  -0.9573
     1.9491   2.2569   2.2849   2.5690   9.0364   9.6662  11.0656  11.4901

          k = 0.7483-0.1436 0.0111 (  2153 PWs)   bands (ev):

   -34.0772 -15.7147 -15.3762 -15.1675 -13.3896 -13.3101  -1.4692  -1.0029
     1.4368   1.9092   2.0095   2.8039   9.7818   9.8916   9.9887  12.0475

          k = 0.7483-0.1338 0.1958 (  2148 PWs)   bands (ev):

   -34.0771 -15.6984 -15.3796 -15.1702 -13.4759 -13.2402  -1.4997  -1.1327
     1.6596   1.9488   2.1437   2.6228  10.0019  10.1585  10.4829  11.9695

          k = 0.7483-0.1632-0.3585 (  2158 PWs)   bands (ev):

   -34.0770 -15.6749 -15.3912 -15.1728 -13.5545 -13.1756  -1.5178  -1.2646
     1.8783   2.1951   2.2368   2.2721  10.4541  10.6104  10.9053  11.5956

          k = 0.7483-0.1534-0.1737 (  2158 PWs)   bands (ev):

   -34.0771 -15.6925 -15.3864 -15.1703 -13.5095 -13.2039  -1.4976  -1.1389
     1.6598   1.9535   2.1191   2.6481  10.0196  10.1816  10.4053  11.9370

          k = 0.4988 0.0000 0.0000 (  2156 PWs)   bands (ev):

   -34.0772 -15.7063 -15.3799 -15.1695 -13.4042 -13.2985  -1.4345  -1.0449
     1.4515   1.9047   2.0087   2.7822   9.7916   9.9190   9.9951  12.0593

          k = 0.4988 0.0098 0.1848 (  2156 PWs)   bands (ev):

   -34.0771 -15.6908 -15.3851 -15.1722 -13.4800 -13.2349  -1.4712  -1.1852
     1.6749   1.9511   2.1396   2.6282  10.0086  10.1742  10.4562  11.9568

          k = 0.4988-0.0196-0.3695 (  2154 PWs)   bands (ev):

   -34.0770 -15.6743 -15.3913 -15.1746 -13.5291 -13.1984  -1.4945  -1.3224
     1.8650   2.2338   2.2589   2.2667  10.4489  10.6030  10.8653  11.5814

          k = 0.0000-0.5744 0.0443 (  2158 PWs)   bands (ev):

   -34.0771 -15.8885 -15.1808 -15.0958 -13.6401 -13.1571  -1.3496  -1.0874
     1.1005   2.2511   2.3373   2.4594   9.0207  10.2822  10.5456  12.1070

          k = 0.0000-0.5646 0.2291 (  2153 PWs)   bands (ev):

   -34.0770 -15.8648 -15.1854 -15.0954 -13.7643 -13.0522  -1.5479  -1.0861
     1.3951   2.1486   2.2427   2.6495   9.4093  10.3998  10.7928  12.0829

          k = 0.0000-0.5940-0.3252 (  2162 PWs)   bands (ev):

   -34.0769 -15.8400 -15.1900 -15.0950 -13.8624 -12.9744  -1.7017  -1.1105
     1.7806   2.0468   2.1259   2.7489   9.8881  10.6279  11.5049  11.7092

     the Fermi energy is     6.7260 ev

!    total energy              =    -219.58549740 Ry
     estimated scf accuracy    <          7.3E-10 Ry
     smearing contrib. (-TS)   =      -0.00000000 Ry
     internal energy E=F+TS    =    -219.58549740 Ry

     The total energy is F=E-TS. E is the sum of the following terms:
     one-electron contribution =     -60.35466294 Ry
     hartree contribution      =      40.80479577 Ry
     xc contribution           =     -28.61337169 Ry
     ewald contribution        =     -92.41406337 Ry
     one-center paw contrib.   =     -79.00819517 Ry

     convergence has been achieved in  14 iterations

     Forces acting on atoms (cartesian axes, Ry/au):

     atom    1 type  1   force =     0.00058796    0.00000000    0.00000000
     atom    2 type  2   force =    -0.00150631    0.00240848    0.03882078
     atom    3 type  2   force =    -0.00150631   -0.00240848   -0.03882078
     atom    4 type  3   force =     0.00121233   -0.00294462   -0.03812346
     atom    5 type  3   force =     0.00121233    0.00294462    0.03812346

     Total force =     0.077186     Total SCF correction =     0.000052


     Computing stress (Cartesian axis) and pressure

          total   stress  (Ry/bohr**3)                   (kbar)     P=       -9.29
   0.00006830   0.00000000  -0.00000000           10.05        0.00       -0.00
   0.00000000   0.00007506  -0.00003633            0.00       11.04       -5.34
   0.00000000  -0.00003633  -0.00033273            0.00       -5.34      -48.95

     Energy error            =      7.1E-04
     Gradient error          =      3.9E-02
     Cell gradient error     =      3.3E-04


     number of scf cycles    =   2
     number of bfgs steps    =   1

     enthalpy old            =    -219.5862028928 Ry
     enthalpy new            =    -219.5854973987 Ry

     CASE: enthalpy_new > enthalpy_old

     new trust radius        =       0.0133055711 bohr
     new conv_thr            =       0.0000000100 Ry

     new unit-cell volume =    363.63408 a.u.^3 (    53.88501 Ang^3 )
     density =      2.28324 g/cm^3

CELL_PARAMETERS (angstrom)
   1.795636902   3.105882208  -0.164703195
  -1.795636902   3.105882208  -0.164703195
   0.000000000   0.371906940   4.811249591

ATOMIC_POSITIONS (angstrom)
Ca           -1.4875369455        3.1058822075       -0.1647031954
H             0.3389113250        4.3868673416        2.4674696737
H             0.3389113250        2.1968040140        2.0143735267
O             0.3080597493        4.4549115119        3.4448487590
O             0.3080597493        2.1287598436        1.0369944414



     Writing output data file ./out/H2CaO2.save/
     NEW-OLD atomic charge density approx. for the potential

     Check: negative core charge=   -0.000003
     extrapolated charge   23.81624, renormalised to   24.00000

     total cpu time spent up to now is      117.6 secs

     Self-consistent Calculation

     iteration #  1     ecut=    50.00 Ry     beta= 0.30
     Davidson diagonalization with overlap
     ethr =  1.00E-06,  avg # of iterations = 10.7

     total cpu time spent up to now is      122.5 secs

     total energy              =    -219.58132475 Ry
     estimated scf accuracy    <       0.00664079 Ry

     iteration #  2     ecut=    50.00 Ry     beta= 0.30
     Davidson diagonalization with overlap
     ethr =  2.77E-05,  avg # of iterations =  3.1

     total cpu time spent up to now is      125.2 secs

     total energy              =    -219.58712679 Ry
     estimated scf accuracy    <       0.00331777 Ry

     iteration #  3     ecut=    50.00 Ry     beta= 0.30
     Davidson diagonalization with overlap
     ethr =  1.38E-05,  avg # of iterations =  2.1

     total cpu time spent up to now is      126.7 secs

     total energy              =    -219.58636528 Ry
     estimated scf accuracy    <       0.00153160 Ry

     iteration #  4     ecut=    50.00 Ry     beta= 0.30
     Davidson diagonalization with overlap
     ethr =  6.38E-06,  avg # of iterations =  2.4

     total cpu time spent up to now is      129.5 secs

     total energy              =    -219.58686263 Ry
     estimated scf accuracy    <       0.00010827 Ry

     iteration #  5     ecut=    50.00 Ry     beta= 0.30
     Davidson diagonalization with overlap
     c_bands:  1 eigenvalues not converged
     ethr =  4.51E-07,  avg # of iterations =  6.0

     total cpu time spent up to now is      132.3 secs

     total energy              =    -219.58687633 Ry
     estimated scf accuracy    <       0.00011548 Ry

     iteration #  6     ecut=    50.00 Ry     beta= 0.30
     Davidson diagonalization with overlap
     c_bands:  1 eigenvalues not converged
     ethr =  4.51E-07,  avg # of iterations =  3.8

     total cpu time spent up to now is      134.1 secs

     total energy              =    -219.58692255 Ry
     estimated scf accuracy    <       0.00003528 Ry

     iteration #  7     ecut=    50.00 Ry     beta= 0.30
     Davidson diagonalization with overlap
     ethr =  1.47E-07,  avg # of iterations =  1.4

     total cpu time spent up to now is      136.2 secs

     total energy              =    -219.58692278 Ry
     estimated scf accuracy    <       0.00000837 Ry

     iteration #  8     ecut=    50.00 Ry     beta= 0.30
     Davidson diagonalization with overlap
     ethr =  3.49E-08,  avg # of iterations =  2.8

     total cpu time spent up to now is      138.2 secs

     total energy              =    -219.58692368 Ry
     estimated scf accuracy    <       0.00000160 Ry

     iteration #  9     ecut=    50.00 Ry     beta= 0.30
     Davidson diagonalization with overlap
     ethr =  6.65E-09,  avg # of iterations =  4.5

     total cpu time spent up to now is      140.8 secs

     total energy              =    -219.58692444 Ry
     estimated scf accuracy    <       0.00000002 Ry

     iteration # 10     ecut=    50.00 Ry     beta= 0.30
     Davidson diagonalization with overlap
     ethr =  7.86E-11,  avg # of iterations =  6.9

     total cpu time spent up to now is      145.0 secs

     total energy              =    -219.58692444 Ry
     estimated scf accuracy    <       0.00000017 Ry

     iteration # 11     ecut=    50.00 Ry     beta= 0.30
     Davidson diagonalization with overlap
     ethr =  7.86E-11,  avg # of iterations =  4.1

     total cpu time spent up to now is      148.0 secs

     End of self-consistent calculation

          k = 0.0000 0.0000 0.0000 (  2187 PWs)   bands (ev):

   -34.0500 -15.5480 -14.9543 -14.9516 -14.2170 -13.0201  -2.3570  -0.2698
     1.9490   1.9969   3.0901   3.1290   7.3695  10.6079  11.0405  11.4027

          k = 0.0000 0.0098 0.1857 (  2174 PWs)   bands (ev):

   -34.0498 -15.6193 -14.9540 -14.9512 -14.0159 -13.1597  -2.1159  -0.6646
     2.0404   2.0580   3.0050   3.0077   8.0465  10.4220  10.9432  10.9560

          k = 0.0000-0.0197-0.3713 (  2164 PWs)   bands (ev):

   -34.0496 -15.6810 -14.9537 -14.9509 -13.7112 -13.4126  -1.5587  -1.3613
     2.1306   2.1627   2.8513   2.9140   8.9971  10.2615  10.8620  10.8722

          k =-0.2498 0.1438-0.0111 (  2162 PWs)   bands (ev):

   -34.0308 -15.5254 -15.3433 -14.9933 -13.6898 -13.2447  -1.9275  -0.6269
     1.8858   2.1333   2.2164   2.8547   8.7784   9.8047  10.6269  11.5532

          k =-0.2498 0.1536 0.1745 (  2173 PWs)   bands (ev):

   -34.0307 -15.5557 -15.3281 -14.9930 -13.5259 -13.3986  -1.7694  -0.9717
     2.0050   2.3140   2.3320   2.6237   9.1645   9.7884  11.1917  11.5526

          k =-0.2498 0.1241-0.3824 (  2165 PWs)   bands (ev):

   -34.0305 -15.5308 -15.3628 -14.9925 -13.6086 -13.3007  -1.5550  -1.4070
     2.1587   2.2213   2.4117   2.7938   9.4334  10.2826  10.8489  11.4639

          k =-0.2498 0.1340-0.1968 (  2160 PWs)   bands (ev):

   -34.0307 -15.4846 -15.3944 -14.9929 -13.7215 -13.1972  -1.8807  -0.9227
     2.0424   2.1020   2.3327   2.9571   8.9461  10.2443  10.5089  11.4623

          k = 0.4995-0.2876 0.0222 (  2154 PWs)   bands (ev):

   -34.0115 -15.8378 -15.1167 -15.0325 -13.7461 -13.1565  -1.2597  -1.2008
     1.1755   2.2500   2.3996   2.5029   9.1094  10.4322  10.8199  12.1721

          k = 0.4995-0.2778 0.2079 (  2155 PWs)   bands (ev):

   -34.0114 -15.8201 -15.1221 -15.0321 -13.8143 -13.1019  -1.5026  -1.1667
     1.4798   2.1986   2.2652   2.7021   9.4742  10.5336  11.0457  12.1509

          k = 0.4995-0.3073-0.3491 (  2158 PWs)   bands (ev):

   -34.0113 -15.8021 -15.1273 -15.0316 -13.8754 -13.0553  -1.6657  -1.1896
     1.8598   2.1015   2.1748   2.8034   9.9363  10.7315  11.6822  11.9157

          k = 0.0000 0.2876-0.0222 (  2161 PWs)   bands (ev):

   -34.0308 -15.5354 -15.3395 -14.9912 -13.6805 -13.2494  -1.9336  -0.6172
     1.8807   2.1044   2.2455   2.8747   8.7787   9.7907  10.5875  11.5622

          k = 0.0000 0.2975 0.1634 (  2171 PWs)   bands (ev):

   -34.0307 -15.4858 -15.3932 -14.9909 -13.7353 -13.1864  -1.9023  -0.8912
     2.0270   2.1068   2.3430   2.9631   8.9193  10.2369  10.5803  11.4713

          k = 0.0000 0.2679-0.3936 (  2170 PWs)   bands (ev):

   -34.0305 -15.5264 -15.3679 -14.9906 -13.6361 -13.2758  -1.5740  -1.3578
     2.1685   2.2203   2.3880   2.7714   9.4151  10.2826  10.8845  11.4696

          k = 0.0000 0.2778-0.2079 (  2157 PWs)   bands (ev):

   -34.0306 -15.5609 -15.3297 -14.9909 -13.5178 -13.4019  -1.7466  -0.9677
     1.9910   2.3072   2.3372   2.6075   9.1928   9.7434  11.1514  11.5585

          k = 0.7493-0.1438 0.0111 (  2153 PWs)   bands (ev):

   -34.0115 -15.6741 -15.3254 -15.1026 -13.4332 -13.3517  -1.4559  -1.0124
     1.4759   1.9560   2.0553   2.8585   9.8690   9.9880  10.1568  12.1365

          k = 0.7493-0.1340 0.1968 (  2148 PWs)   bands (ev):

   -34.0114 -15.6560 -15.3294 -15.1055 -13.5216 -13.2813  -1.4855  -1.1384
     1.6997   1.9905   2.1882   2.6750  10.1090  10.2767  10.6017  12.0690

          k = 0.7493-0.1635-0.3602 (  2158 PWs)   bands (ev):

   -34.0113 -15.6293 -15.3432 -15.1083 -13.6024 -13.2156  -1.5023  -1.2680
     1.9184   2.2312   2.2783   2.3261  10.5225  10.8061  10.9864  11.6920

          k = 0.7493-0.1536-0.1745 (  2158 PWs)   bands (ev):

   -34.0114 -15.6491 -15.3374 -15.1057 -13.5559 -13.2438  -1.4833  -1.1449
     1.6994   1.9953   2.1638   2.7007  10.1133  10.3112  10.5327  12.0329

          k = 0.4995 0.0000 0.0000 (  2156 PWs)   bands (ev):

   -34.0115 -15.6653 -15.3293 -15.1048 -13.4486 -13.3395  -1.4232  -1.0519
     1.4918   1.9513   2.0547   2.8363   9.8822  10.0133  10.1568  12.1468

          k = 0.4995 0.0098 0.1857 (  2156 PWs)   bands (ev):

   -34.0114 -15.6480 -15.3353 -15.1076 -13.5261 -13.2755  -1.4588  -1.1887
     1.7155   1.9922   2.1850   2.6802  10.1090  10.3039  10.5709  12.0543

          k = 0.4995-0.0197-0.3713 (  2154 PWs)   bands (ev):

   -34.0113 -15.6295 -15.3427 -15.1101 -13.5766 -13.2386  -1.4803  -1.3239
     1.9041   2.2670   2.3015   2.3240  10.5122  10.8090  10.9513  11.6739

          k = 0.0000-0.5752 0.0445 (  2158 PWs)   bands (ev):

   -34.0115 -15.8513 -15.1163 -15.0306 -13.6949 -13.1983  -1.3312  -1.1012
     1.1406   2.3037   2.3770   2.5117   9.0773  10.4046  10.7783  12.1802

          k = 0.0000-0.5654 0.2301 (  2153 PWs)   bands (ev):

   -34.0114 -15.8249 -15.1212 -15.0301 -13.8238 -13.0914  -1.5344  -1.0911
     1.4351   2.1860   2.2878   2.7045   9.4676  10.5592  10.9857  12.1566

          k = 0.0000-0.5949-0.3269 (  2162 PWs)   bands (ev):

   -34.0112 -15.7971 -15.1261 -15.0297 -13.9265 -13.0122  -1.6890  -1.1113
     1.8263   2.0812   2.1594   2.8068   9.9412  10.8393  11.7002  11.8072

     the Fermi energy is     6.5035 ev

!    total energy              =    -219.58692447 Ry
     estimated scf accuracy    <          7.4E-10 Ry
     smearing contrib. (-TS)   =      -0.00000000 Ry
     internal energy E=F+TS    =    -219.58692447 Ry

     The total energy is F=E-TS. E is the sum of the following terms:
     one-electron contribution =     -59.90036147 Ry
     hartree contribution      =      40.62403649 Ry
     xc contribution           =     -28.65163792 Ry
     ewald contribution        =     -92.65296495 Ry
     one-center paw contrib.   =     -79.00599662 Ry

     convergence has been achieved in  11 iterations

     Forces acting on atoms (cartesian axes, Ry/au):

     atom    1 type  1   force =     0.00071715    0.00000000    0.00000000
     atom    2 type  2   force =    -0.00046620    0.00000995    0.00428931
     atom    3 type  2   force =    -0.00046620   -0.00000995   -0.00428931
     atom    4 type  3   force =     0.00010763   -0.00054651   -0.00312977
     atom    5 type  3   force =     0.00010763    0.00054651    0.00312977

     Total force =     0.007613     Total SCF correction =     0.000035


     Computing stress (Cartesian axis) and pressure

          total   stress  (Ry/bohr**3)                   (kbar)     P=       10.35
   0.00008197   0.00000000  -0.00000000           12.06        0.00       -0.00
   0.00000000   0.00008887  -0.00001257            0.00       13.07       -1.85
   0.00000000  -0.00001257   0.00004016            0.00       -1.85        5.91

     Energy error            =      7.2E-04
     Gradient error          =      4.3E-03
     Cell gradient error     =      8.9E-05


     number of scf cycles    =   3
     number of bfgs steps    =   1

     enthalpy old            =    -219.5862028928 Ry
     enthalpy new            =    -219.5869244748 Ry

     CASE: enthalpy_new < enthalpy_old

     new trust radius        =       0.0090106209 bohr
     new conv_thr            =       0.0000000043 Ry

     new unit-cell volume =    365.84390 a.u.^3 (    54.21247 Ang^3 )
     density =      2.26945 g/cm^3

CELL_PARAMETERS (angstrom)
   1.799521869   3.113211398  -0.165879646
  -1.799521869   3.113211398  -0.165879646
  -0.000000000   0.371360151   4.818632038

ATOMIC_POSITIONS (angstrom)
Ca           -1.4903542012        3.1132113981       -0.1658796462
H             0.3394177504        4.3963565012        2.4713645702
H             0.3394177504        2.2014264460        2.0155081756
O             0.3087525248        4.4641077598        3.4481996385
O             0.3087525248        2.1336751874        1.0386731072



     Writing output data file ./out/H2CaO2.save/
     NEW-OLD atomic charge density approx. for the potential

     Check: negative core charge=   -0.000003
     extrapolated charge   24.14494, renormalised to   24.00000

     total cpu time spent up to now is      159.1 secs

     Self-consistent Calculation

     iteration #  1     ecut=    50.00 Ry     beta= 0.30
     Davidson diagonalization with overlap
     ethr =  1.00E-06,  avg # of iterations =  8.3

     total cpu time spent up to now is      163.3 secs

     total energy              =    -219.58411297 Ry
     estimated scf accuracy    <       0.00275614 Ry

     iteration #  2     ecut=    50.00 Ry     beta= 0.30
     Davidson diagonalization with overlap
     ethr =  1.15E-05,  avg # of iterations =  4.0

     total cpu time spent up to now is      167.0 secs

     total energy              =    -219.58725750 Ry
     estimated scf accuracy    <       0.00235596 Ry

     iteration #  3     ecut=    50.00 Ry     beta= 0.30
     Davidson diagonalization with overlap
     ethr =  9.82E-06,  avg # of iterations =  2.3

     total cpu time spent up to now is      169.4 secs

     total energy              =    -219.58689015 Ry
     estimated scf accuracy    <       0.00115133 Ry

     iteration #  4     ecut=    50.00 Ry     beta= 0.30
     Davidson diagonalization with overlap
     ethr =  4.80E-06,  avg # of iterations =  2.0

     total cpu time spent up to now is      171.9 secs

     total energy              =    -219.58708647 Ry
     estimated scf accuracy    <       0.00005528 Ry

     iteration #  5     ecut=    50.00 Ry     beta= 0.30
     Davidson diagonalization with overlap
     ethr =  2.30E-07,  avg # of iterations =  4.9

     total cpu time spent up to now is      174.0 secs

     total energy              =    -219.58711399 Ry
     estimated scf accuracy    <       0.00004848 Ry

     iteration #  6     ecut=    50.00 Ry     beta= 0.30
     Davidson diagonalization with overlap
     ethr =  2.02E-07,  avg # of iterations =  1.1

     total cpu time spent up to now is      175.3 secs

     total energy              =    -219.58708218 Ry
     estimated scf accuracy    <       0.00006795 Ry

     iteration #  7     ecut=    50.00 Ry     beta= 0.30
     Davidson diagonalization with overlap
     ethr =  2.02E-07,  avg # of iterations =  2.0

     total cpu time spent up to now is      177.9 secs

     total energy              =    -219.58708754 Ry
     estimated scf accuracy    <       0.00001462 Ry

     iteration #  8     ecut=    50.00 Ry     beta= 0.30
     Davidson diagonalization with overlap
     ethr =  6.09E-08,  avg # of iterations =  2.2

     total cpu time spent up to now is      180.0 secs

     total energy              =    -219.58708357 Ry
     estimated scf accuracy    <       0.00001301 Ry

     iteration #  9     ecut=    50.00 Ry     beta= 0.30
     Davidson diagonalization with overlap
     ethr =  5.42E-08,  avg # of iterations =  2.1

     total cpu time spent up to now is      182.8 secs

     total energy              =    -219.58708709 Ry
     estimated scf accuracy    <       0.00000297 Ry

     iteration # 10     ecut=    50.00 Ry     beta= 0.30
     Davidson diagonalization with overlap
     ethr =  1.24E-08,  avg # of iterations =  5.1

     total cpu time spent up to now is      185.7 secs

     total energy              =    -219.58708556 Ry
     estimated scf accuracy    <       0.00000464 Ry

     iteration # 11     ecut=    50.00 Ry     beta= 0.30
     Davidson diagonalization with overlap
     ethr =  1.24E-08,  avg # of iterations =  2.1

     total cpu time spent up to now is      188.1 secs

     total energy              =    -219.58708637 Ry
     estimated scf accuracy    <       0.00000009 Ry

     iteration # 12     ecut=    50.00 Ry     beta= 0.30
     Davidson diagonalization with overlap
     ethr =  3.77E-10,  avg # of iterations =  6.5

     total cpu time spent up to now is      194.0 secs

     total energy              =    -219.58708617 Ry
     estimated scf accuracy    <       0.00000113 Ry

     iteration # 13     ecut=    50.00 Ry     beta= 0.30
     Davidson diagonalization with overlap
     ethr =  3.77E-10,  avg # of iterations =  6.0

     total cpu time spent up to now is      198.2 secs

     total energy              =    -219.58708654 Ry
     estimated scf accuracy    <       0.00000011 Ry

     iteration # 14     ecut=    50.00 Ry     beta= 0.30
     Davidson diagonalization with overlap
     ethr =  3.77E-10,  avg # of iterations =  1.0

     total cpu time spent up to now is      200.6 secs

     total energy              =    -219.58708648 Ry
     estimated scf accuracy    <       0.00000011 Ry

     iteration # 15     ecut=    50.00 Ry     beta= 0.30
     Davidson diagonalization with overlap
     ethr =  3.77E-10,  avg # of iterations =  2.0

     total cpu time spent up to now is      204.1 secs

     total energy              =    -219.58708651 Ry
     estimated scf accuracy    <          6.4E-09 Ry

     iteration # 16     ecut=    50.00 Ry     beta= 0.30
     Davidson diagonalization with overlap
     ethr =  2.68E-11,  avg # of iterations =  4.3

     total cpu time spent up to now is      206.9 secs

     total energy              =    -219.58708651 Ry
     estimated scf accuracy    <          4.8E-09 Ry

     iteration # 17     ecut=    50.00 Ry     beta= 0.30
     Davidson diagonalization with overlap
     ethr =  2.00E-11,  avg # of iterations =  2.0

     total cpu time spent up to now is      208.6 secs

     End of self-consistent calculation

          k = 0.0000 0.0000 0.0000 (  2187 PWs)   bands (ev):

   -34.1326 -15.6125 -15.0371 -15.0346 -14.2567 -13.0868  -2.3893  -0.3240
     1.9108   1.9572   3.0396   3.0786   7.3013  10.5306  10.9634  11.3435

          k = 0.0000 0.0099 0.1854 (  2174 PWs)   bands (ev):

   -34.1324 -15.6804 -15.0368 -15.0343 -14.0603 -13.2248  -2.1511  -0.7145
     2.0017   2.0183   2.9555   2.9576   7.9764  10.3546  10.8658  10.8804

          k = 0.0000-0.0198-0.3708 (  2164 PWs)   bands (ev):

   -34.1323 -15.7395 -15.0366 -15.0339 -13.7573 -13.4781  -1.6027  -1.4015
     2.0910   2.1234   2.8029   2.8639   8.9275  10.1972  10.7852  10.7973

          k =-0.2492 0.1435-0.0111 (  2162 PWs)   bands (ev):

   -34.1140 -15.5875 -15.4133 -15.0752 -13.7471 -13.3064  -1.9651  -0.6764
     1.8444   2.0912   2.1737   2.8067   8.7088   9.7403  10.5539  11.4706

          k =-0.2492 0.1533 0.1743 (  2173 PWs)   bands (ev):

   -34.1139 -15.6169 -15.3986 -15.0749 -13.5874 -13.4562  -1.8090  -1.0172
     1.9625   2.2706   2.2890   2.5762   9.0959   9.7239  11.1117  11.4697

          k =-0.2492 0.1237-0.3818 (  2165 PWs)   bands (ev):

   -34.1138 -15.5936 -15.4311 -15.0744 -13.6662 -13.3632  -1.5929  -1.4512
     2.1176   2.1777   2.3648   2.7449   9.3663  10.2153  10.7778  11.3819

          k =-0.2492 0.1336-0.1964 (  2160 PWs)   bands (ev):

   -34.1139 -15.5493 -15.4611 -15.0748 -13.7777 -13.2609  -1.9175  -0.9693
     2.0015   2.0587   2.2873   2.9076   8.8779  10.1763  10.4389  11.3806

          k = 0.4984-0.2869 0.0221 (  2154 PWs)   bands (ev):

   -34.0954 -15.8931 -15.1971 -15.1134 -13.7913 -13.2244  -1.3053  -1.2432
     1.1400   2.2045   2.3515   2.4604   9.0496  10.3610  10.7530  12.0831

          k = 0.4984-0.2770 0.2075 (  2155 PWs)   bands (ev):

   -34.0953 -15.8761 -15.2024 -15.1130 -13.8590 -13.1698  -1.5419  -1.2130
     1.4408   2.1561   2.2193   2.6538   9.4117  10.4642  10.9741  12.0623

          k = 0.4984-0.3067-0.3486 (  2158 PWs)   bands (ev):

   -34.0951 -15.8587 -15.2073 -15.1125 -13.9192 -13.1235  -1.7021  -1.2369
     1.8179   2.0606   2.1285   2.7533   9.8677  10.6634  11.6168  11.8290

          k = 0.0000 0.2869-0.0221 (  2161 PWs)   bands (ev):

   -34.1140 -15.5971 -15.4099 -15.0732 -13.7379 -13.3109  -1.9713  -0.6665
     1.8393   2.0634   2.2019   2.8271   8.7085   9.7254  10.5151  11.4803

          k = 0.0000 0.2968 0.1633 (  2171 PWs)   bands (ev):

   -34.1139 -15.5504 -15.4603 -15.0729 -13.7910 -13.2502  -1.9389  -0.9379
     1.9872   2.0630   2.2970   2.9140   8.8508  10.1678  10.5070  11.3903

          k = 0.0000 0.2672-0.3929 (  2170 PWs)   bands (ev):

   -34.1137 -15.5894 -15.4361 -15.0726 -13.6930 -13.3386  -1.6117  -1.4028
     2.1276   2.1761   2.3422   2.7232   9.3483  10.2139  10.8122  11.3884

          k = 0.0000 0.2770-0.2075 (  2157 PWs)   bands (ev):

   -34.1139 -15.6218 -15.4003 -15.0729 -13.5802 -13.4588  -1.7866  -1.0135
     1.9482   2.2642   2.2945   2.5614   9.1236   9.6794  11.0733  11.4764

          k = 0.7476-0.1435 0.0111 (  2153 PWs)   bands (ev):

   -34.0954 -15.7330 -15.3949 -15.1831 -13.4911 -13.4147  -1.4984  -1.0574
     1.4371   1.9141   2.0129   2.8099   9.8019   9.9215  10.0895  12.0481

          k = 0.7476-0.1336 0.1964 (  2148 PWs)   bands (ev):

   -34.0953 -15.7156 -15.3986 -15.1859 -13.5791 -13.3440  -1.5271  -1.1833
     1.6588   1.9486   2.1446   2.6276  10.0435  10.2047  10.5305  11.9816

          k = 0.7476-0.1632-0.3597 (  2158 PWs)   bands (ev):

   -34.0951 -15.6902 -15.4116 -15.1885 -13.6585 -13.2794  -1.5418  -1.3140
     1.8777   2.1849   2.2347   2.2810  10.4466  10.7408  10.9103  11.6095

          k = 0.7476-0.1533-0.1743 (  2158 PWs)   bands (ev):

   -34.0953 -15.7092 -15.4061 -15.1860 -13.6128 -13.3075  -1.5245  -1.1900
     1.6588   1.9534   2.1205   2.6527  10.0468  10.2391  10.4644  11.9460

          k = 0.4984 0.0000 0.0000 (  2156 PWs)   bands (ev):

   -34.0954 -15.7244 -15.3987 -15.1851 -13.5057 -13.4034  -1.4656  -1.0969
     1.4526   1.9091   2.0122   2.7880   9.8148   9.9456  10.0913  12.0591

          k = 0.4984 0.0099 0.1854 (  2156 PWs)   bands (ev):

   -34.0953 -15.7078 -15.4044 -15.1878 -13.5830 -13.3391  -1.5003  -1.2332
     1.6746   1.9500   2.1410   2.6325  10.0426  10.2319  10.5025  11.9684

          k = 0.4984-0.0198-0.3708 (  2154 PWs)   bands (ev):

   -34.0952 -15.6901 -15.4114 -15.1902 -13.6327 -13.3026  -1.5202  -1.3688
     1.8640   2.2206   2.2562   2.2784  10.4360  10.7437  10.8776  11.5932

          k = 0.0000-0.5739 0.0442 (  2158 PWs)   bands (ev):

   -34.0953 -15.9062 -15.1967 -15.1116 -13.7410 -13.2654  -1.3767  -1.1446
     1.1056   2.2576   2.3297   2.4703   9.0177  10.3339  10.7100  12.0909

          k = 0.0000-0.5640 0.2296 (  2153 PWs)   bands (ev):

   -34.0952 -15.8809 -15.2015 -15.1111 -13.8685 -13.1590  -1.5739  -1.1381
     1.3970   2.1447   2.2416   2.6568   9.4040  10.4888  10.9143  12.0677

          k = 0.0000-0.5936-0.3265 (  2162 PWs)   bands (ev):

   -34.0951 -15.8542 -15.2062 -15.1107 -13.9692 -13.0807  -1.7252  -1.1599
     1.7857   2.0413   2.1134   2.7570   9.8703  10.7672  11.6364  11.7229

     the Fermi energy is     6.4150 ev

!    total energy              =    -219.58708651 Ry
     estimated scf accuracy    <          2.8E-10 Ry
     smearing contrib. (-TS)   =      -0.00000000 Ry
     internal energy E=F+TS    =    -219.58708651 Ry

     The total energy is F=E-TS. E is the sum of the following terms:
     one-electron contribution =     -60.19141587 Ry
     hartree contribution      =      40.71589182 Ry
     xc contribution           =     -28.64551567 Ry
     ewald contribution        =     -92.46005833 Ry
     one-center paw contrib.   =     -79.00598847 Ry

     convergence has been achieved in  17 iterations

     Forces acting on atoms (cartesian axes, Ry/au):

     atom    1 type  1   force =     0.00063134    0.00000000    0.00000000
     atom    2 type  2   force =    -0.00043473   -0.00006832    0.00327060
     atom    3 type  2   force =    -0.00043473    0.00006832   -0.00327060
     atom    4 type  3   force =     0.00011906   -0.00041379   -0.00062807
     atom    5 type  3   force =     0.00011906    0.00041379    0.00062807

     Total force =     0.004831     Total SCF correction =     0.000028


     Computing stress (Cartesian axis) and pressure

          total   stress  (Ry/bohr**3)                   (kbar)     P=        6.72
   0.00005058   0.00000000  -0.00000000            7.44        0.00       -0.00
   0.00000000   0.00005699  -0.00001021            0.00        8.38       -1.50
   0.00000000  -0.00001021   0.00002951            0.00       -1.50        4.34

     Energy error            =      1.6E-04
     Gradient error          =      3.3E-03
     Cell gradient error     =      5.7E-05


     number of scf cycles    =   4
     number of bfgs steps    =   2

     enthalpy old            =    -219.5869244748 Ry
     enthalpy new            =    -219.5870865144 Ry

     CASE: enthalpy_new < enthalpy_old

     new trust radius        =       0.0099179014 bohr
     new conv_thr            =       0.0000000016 Ry

     new unit-cell volume =    368.26193 a.u.^3 (    54.57079 Ang^3 )
     density =      2.25455 g/cm^3

CELL_PARAMETERS (angstrom)
   1.803635835   3.121248873  -0.167455716
  -1.803635835   3.121248873  -0.167455716
  -0.000000000   0.370329333   4.826908041

ATOMIC_POSITIONS (angstrom)
Ca           -1.4931807763        3.1212488727       -0.1674557165
H             0.3398268322        4.4064716948        2.4759855979
H             0.3398268322        2.2063553841        2.0160110106
O             0.3095349590        4.4737972487        3.4525617693
O             0.3095349590        2.1390298302        1.0394348391



     Writing output data file ./out/H2CaO2.save/
     NEW-OLD atomic charge density approx. for the potential

     Check: negative core charge=   -0.000003
     extrapolated charge   24.15755, renormalised to   24.00000

     total cpu time spent up to now is      219.7 secs

     Self-consistent Calculation

     iteration #  1     ecut=    50.00 Ry     beta= 0.30
     Davidson diagonalization with overlap
     ethr =  1.00E-06,  avg # of iterations =  8.2

     total cpu time spent up to now is      224.0 secs

     total energy              =    -219.58367868 Ry
     estimated scf accuracy    <       0.00324457 Ry

     iteration #  2     ecut=    50.00 Ry     beta= 0.30
     Davidson diagonalization with overlap
     ethr =  1.35E-05,  avg # of iterations =  4.0

     total cpu time spent up to now is      227.1 secs

     total energy              =    -219.58740535 Ry
     estimated scf accuracy    <       0.00284107 Ry

     iteration #  3     ecut=    50.00 Ry     beta= 0.30
     Davidson diagonalization with overlap
     ethr =  1.18E-05,  avg # of iterations =  2.2

     total cpu time spent up to now is      229.1 secs

     total energy              =    -219.58697532 Ry
     estimated scf accuracy    <       0.00138336 Ry

     iteration #  4     ecut=    50.00 Ry     beta= 0.30
     Davidson diagonalization with overlap
     ethr =  5.76E-06,  avg # of iterations =  2.0

     total cpu time spent up to now is      232.0 secs

     total energy              =    -219.58720524 Ry
     estimated scf accuracy    <       0.00007896 Ry

     iteration #  5     ecut=    50.00 Ry     beta= 0.30
     Davidson diagonalization with overlap
     ethr =  3.29E-07,  avg # of iterations =  5.0

     total cpu time spent up to now is      234.8 secs

     total energy              =    -219.58723282 Ry
     estimated scf accuracy    <       0.00008710 Ry

     iteration #  6     ecut=    50.00 Ry     beta= 0.30
     Davidson diagonalization with overlap
     ethr =  3.29E-07,  avg # of iterations =  1.0

     total cpu time spent up to now is      237.0 secs

     total energy              =    -219.58715751 Ry
     estimated scf accuracy    <       0.00010360 Ry

     iteration #  7     ecut=    50.00 Ry     beta= 0.30
     Davidson diagonalization with overlap
     ethr =  3.29E-07,  avg # of iterations =  3.2

     total cpu time spent up to now is      239.1 secs

     total energy              =    -219.58719695 Ry
     estimated scf accuracy    <       0.00001197 Ry

     iteration #  8     ecut=    50.00 Ry     beta= 0.30
     Davidson diagonalization with overlap
     ethr =  4.99E-08,  avg # of iterations =  2.2

     total cpu time spent up to now is      241.3 secs

     total energy              =    -219.58719734 Ry
     estimated scf accuracy    <       0.00000782 Ry

     iteration #  9     ecut=    50.00 Ry     beta= 0.30
     Davidson diagonalization with overlap
     ethr =  3.26E-08,  avg # of iterations =  1.2

     total cpu time spent up to now is      243.6 secs

     total energy              =    -219.58719534 Ry
     estimated scf accuracy    <       0.00000657 Ry

     iteration # 10     ecut=    50.00 Ry     beta= 0.30
     Davidson diagonalization with overlap
     ethr =  2.74E-08,  avg # of iterations =  1.9

     total cpu time spent up to now is      245.8 secs

     total energy              =    -219.58719490 Ry
     estimated scf accuracy    <       0.00000174 Ry

     iteration # 11     ecut=    50.00 Ry     beta= 0.30
     Davidson diagonalization with overlap
     ethr =  7.24E-09,  avg # of iterations =  3.8

     total cpu time spent up to now is      247.5 secs

     total energy              =    -219.58719567 Ry
     estimated scf accuracy    <       0.00000022 Ry

     iteration # 12     ecut=    50.00 Ry     beta= 0.30
     Davidson diagonalization with overlap
     ethr =  9.12E-10,  avg # of iterations =  4.5

     total cpu time spent up to now is      250.1 secs

     total energy              =    -219.58719559 Ry
     estimated scf accuracy    <       0.00000032 Ry

     iteration # 13     ecut=    50.00 Ry     beta= 0.30
     Davidson diagonalization with overlap
     ethr =  9.12E-10,  avg # of iterations =  3.5

     total cpu time spent up to now is      252.7 secs

     total energy              =    -219.58719568 Ry
     estimated scf accuracy    <       0.00000001 Ry

     iteration # 14     ecut=    50.00 Ry     beta= 0.30
     Davidson diagonalization with overlap
     ethr =  5.21E-11,  avg # of iterations =  5.5

     total cpu time spent up to now is      256.6 secs

     total energy              =    -219.58719569 Ry
     estimated scf accuracy    <       0.00000002 Ry

     iteration # 15     ecut=    50.00 Ry     beta= 0.30
     Davidson diagonalization with overlap
     ethr =  5.21E-11,  avg # of iterations =  2.0

     total cpu time spent up to now is      258.7 secs

     total energy              =    -219.58719569 Ry
     estimated scf accuracy    <       0.00000002 Ry

     iteration # 16     ecut=    50.00 Ry     beta= 0.30
     Davidson diagonalization with overlap
     ethr =  5.21E-11,  avg # of iterations =  1.0

     total cpu time spent up to now is      261.4 secs

     total energy              =    -219.58719569 Ry
     estimated scf accuracy    <       0.00000001 Ry

     iteration # 17     ecut=    50.00 Ry     beta= 0.30
     Davidson diagonalization with overlap
     ethr =  4.63E-11,  avg # of iterations =  2.0

     total cpu time spent up to now is      265.4 secs

     total energy              =    -219.58719569 Ry
     estimated scf accuracy    <       0.00000002 Ry

     iteration # 18     ecut=    50.00 Ry     beta= 0.30
     Davidson diagonalization with overlap
     ethr =  4.63E-11,  avg # of iterations =  1.0

     total cpu time spent up to now is      268.2 secs

     total energy              =    -219.58719569 Ry
     estimated scf accuracy    <       0.00000002 Ry

     iteration # 19     ecut=    50.00 Ry     beta= 0.30
     Davidson diagonalization with overlap
     ethr =  4.63E-11,  avg # of iterations =  1.0

     total cpu time spent up to now is      270.9 secs

     total energy              =    -219.58719569 Ry
     estimated scf accuracy    <       0.00000001 Ry

     iteration # 20     ecut=    50.00 Ry     beta= 0.30
     Davidson diagonalization with overlap
     ethr =  4.63E-11,  avg # of iterations =  1.0

     total cpu time spent up to now is      273.4 secs

     total energy              =    -219.58719569 Ry
     estimated scf accuracy    <          6.5E-09 Ry

     iteration # 21     ecut=    50.00 Ry     beta= 0.30
     Davidson diagonalization with overlap
     ethr =  2.73E-11,  avg # of iterations =  1.0

     total cpu time spent up to now is      275.4 secs

     total energy              =    -219.58719568 Ry
     estimated scf accuracy    <          6.0E-09 Ry

     iteration # 22     ecut=    50.00 Ry     beta= 0.30
     Davidson diagonalization with overlap
     ethr =  2.51E-11,  avg # of iterations =  2.0

     total cpu time spent up to now is      277.6 secs

     total energy              =    -219.58719568 Ry
     estimated scf accuracy    <          1.7E-09 Ry

     iteration # 23     ecut=    50.00 Ry     beta= 0.30
     Davidson diagonalization with overlap
     ethr =  7.11E-12,  avg # of iterations =  2.9

     total cpu time spent up to now is      279.9 secs

     End of self-consistent calculation

          k = 0.0000 0.0000 0.0000 (  2187 PWs)   bands (ev):

   -34.2186 -15.6809 -15.1234 -15.1211 -14.2981 -13.1565  -2.4248  -0.3809
     1.8684   1.9126   2.9851   3.0240   7.2254  10.4518  10.8828  11.2776

          k = 0.0000 0.0099 0.1851 (  2174 PWs)   bands (ev):

   -34.2185 -15.7452 -15.1231 -15.1208 -14.1069 -13.2926  -2.1896  -0.7674
     1.9585   1.9736   2.9023   2.9036   7.8982  10.2848  10.7846  10.8017

          k = 0.0000-0.0199-0.3701 (  2164 PWs)   bands (ev):

   -34.2183 -15.8016 -15.1228 -15.1205 -13.8070 -13.5452  -1.6498  -1.4448
     2.0463   2.0790   2.7516   2.8101   8.8493  10.1297  10.7044  10.7194

          k =-0.2486 0.1431-0.0110 (  2162 PWs)   bands (ev):

   -34.2007 -15.6535 -15.4871 -15.1605 -13.8059 -13.3708  -2.0059  -0.7287
     1.7995   2.0447   2.1272   2.7546   8.6303   9.6733  10.4770  11.3840

          k =-0.2486 0.1530 0.1741 (  2173 PWs)   bands (ev):

   -34.2006 -15.6819 -15.4730 -15.1602 -13.6506 -13.5166  -1.8517  -1.0655
     1.9164   2.2228   2.2413   2.5253   9.0180   9.6569  11.0283  11.3826

          k =-0.2486 0.1232-0.3811 (  2165 PWs)   bands (ev):

   -34.2004 -15.6602 -15.5033 -15.1598 -13.7256 -13.4281  -1.6337  -1.4983
     2.0725   2.1305   2.3134   2.6916   9.2903  10.1452  10.7025  11.2957

          k =-0.2486 0.1332-0.1960 (  2160 PWs)   bands (ev):

   -34.2006 -15.6180 -15.5316 -15.1601 -13.8356 -13.3273  -1.9574  -1.0187
     1.9566   2.0119   2.2378   2.8536   8.8010  10.1052  10.3656  11.2950

          k = 0.4973-0.2862 0.0220 (  2154 PWs)   bands (ev):

   -34.1827 -15.9521 -15.2813 -15.1978 -13.8392 -13.2941  -1.3539  -1.2882
     1.1013   2.1553   2.2997   2.4134   8.9878  10.2818  10.6766  11.9897

          k = 0.4973-0.2763 0.2070 (  2155 PWs)   bands (ev):

   -34.1826 -15.9357 -15.2864 -15.1974 -13.9061 -13.2397  -1.5840  -1.2619
     1.3983   2.1102   2.1699   2.6008   9.3472  10.3864  10.8937  11.9690

          k = 0.4973-0.3060-0.3482 (  2158 PWs)   bands (ev):

   -34.1825 -15.9191 -15.2912 -15.1969 -13.9653 -13.1938  -1.7413  -1.2870
     1.7719   2.0164   2.0794   2.6982   9.7971  10.5872  11.5404  11.7365

          k = 0.0000 0.2862-0.0220 (  2161 PWs)   bands (ev):

   -34.2007 -15.6625 -15.4841 -15.1587 -13.7969 -13.3751  -2.0124  -0.7185
     1.7945   2.0185   2.1540   2.7756   8.6294   9.6571  10.4390  11.3947

          k = 0.0000 0.2961 0.1631 (  2171 PWs)   bands (ev):

   -34.2006 -15.6189 -15.5312 -15.1583 -13.8481 -13.3167  -1.9788  -0.9873
     1.9439   2.0155   2.2467   2.8606   8.7739  10.0949  10.4299  11.3056

          k = 0.0000 0.2663-0.3921 (  2170 PWs)   bands (ev):

   -34.2004 -15.6562 -15.5082 -15.1581 -13.7516 -13.4040  -1.6524  -1.4509
     2.0828   2.1282   2.2924   2.6710   9.2728  10.1418  10.7356  11.3034

          k = 0.0000 0.2763-0.2070 (  2157 PWs)   bands (ev):

   -34.2006 -15.6866 -15.4747 -15.1584 -13.6440 -13.5185  -1.8299  -1.0623
     1.9018   2.2172   2.2471   2.5124   9.0448   9.6129  10.9922  11.3905

          k = 0.7459-0.1431 0.0110 (  2153 PWs)   bands (ev):

   -34.1827 -15.7956 -15.4682 -15.2673 -13.5514 -13.4794  -1.5440  -1.1049
     1.3952   1.8686   1.9667   2.7571   9.7278   9.8516  10.0154  11.9546

          k = 0.7459-0.1332 0.1960 (  2148 PWs)   bands (ev):

   -34.1826 -15.7790 -15.4718 -15.2700 -13.6387 -13.4087  -1.5715  -1.2309
     1.6143   1.9035   2.0974   2.5761   9.9728  10.1263  10.4541  11.8885

          k = 0.7459-0.1629-0.3591 (  2158 PWs)   bands (ev):

   -34.1825 -15.7549 -15.4838 -15.2724 -13.7163 -13.3454  -1.5841  -1.3629
     1.8334   2.1358   2.1877   2.2312  10.3672  10.6666  10.8300  11.5208

          k = 0.7459-0.1530-0.1741 (  2158 PWs)   bands (ev):

   -34.1826 -15.7730 -15.4787 -15.2700 -13.6715 -13.3734  -1.5687  -1.2378
     1.6151   1.9079   2.0736   2.6004   9.9758  10.1596  10.3910  11.8538

          k = 0.4973-0.0000-0.0000 (  2156 PWs)   bands (ev):

   -34.1827 -15.7873 -15.4720 -15.2691 -13.5650 -13.4692  -1.5109  -1.1446
     1.4099   1.8634   1.9658   2.7356   9.7404   9.8742  10.0198  11.9665

          k = 0.4973 0.0099 0.1851 (  2156 PWs)   bands (ev):

   -34.1826 -15.7714 -15.4774 -15.2716 -13.6419 -13.4048  -1.5447  -1.2802
     1.6301   1.9043   2.0930   2.5806   9.9712  10.1527  10.4297  11.8774

          k = 0.4973-0.0199-0.3701 (  2154 PWs)   bands (ev):

   -34.1825 -15.7545 -15.4840 -15.2739 -13.6906 -13.3687  -1.5629  -1.4164
     1.8205   2.1715   2.2071   2.2279  10.3561  10.6690  10.8002  11.5076

          k = 0.0000-0.5724 0.0439 (  2158 PWs)   bands (ev):

   -34.1827 -15.9648 -15.2810 -15.1960 -13.7901 -13.3339  -1.4254  -1.1905
     1.0676   2.2077   2.2792   2.4247   8.9559  10.2551  10.6318  11.9970

          k = 0.0000-0.5624 0.2290 (  2153 PWs)   bands (ev):

   -34.1826 -15.9406 -15.2856 -15.1955 -13.9155 -13.2287  -1.6164  -1.1880
     1.3557   2.1005   2.1919   2.6045   9.3380  10.4093  10.8341  11.9739

          k = 0.0000-0.5922-0.3262 (  2162 PWs)   bands (ev):

   -34.1825 -15.9152 -15.2902 -15.1951 -14.0139 -13.1516  -1.7641  -1.2116
     1.7414   1.9986   2.0646   2.7023   9.7969  10.6857  11.5615  11.6334

     the Fermi energy is     6.3220 ev

!    total energy              =    -219.58719568 Ry
     estimated scf accuracy    <          7.3E-10 Ry
     smearing contrib. (-TS)   =      -0.00000000 Ry
     internal energy E=F+TS    =    -219.58719568 Ry

     The total energy is F=E-TS. E is the sum of the following terms:
     one-electron contribution =     -60.54085177 Ry
     hartree contribution      =      40.83323327 Ry
     xc contribution           =     -28.63870893 Ry
     ewald contribution        =     -92.23483476 Ry
     one-center paw contrib.   =     -79.00603349 Ry

     convergence has been achieved in  23 iterations

     Forces acting on atoms (cartesian axes, Ry/au):

     atom    1 type  1   force =     0.00051925    0.00000000    0.00000000
     atom    2 type  2   force =    -0.00041654   -0.00012176    0.00272997
     atom    3 type  2   force =    -0.00041654    0.00012176   -0.00272997
     atom    4 type  3   force =     0.00015692   -0.00032907    0.00116628
     atom    5 type  3   force =     0.00015692    0.00032907   -0.00116628

     Total force =     0.004306     Total SCF correction =     0.000026


     Computing stress (Cartesian axis) and pressure

          total   stress  (Ry/bohr**3)                   (kbar)     P=        2.74
   0.00001828   0.00000000  -0.00000000            2.69        0.00       -0.00
   0.00000000   0.00002384  -0.00000776            0.00        3.51       -1.14
   0.00000000  -0.00000776   0.00001367            0.00       -1.14        2.01

     Energy error            =      1.1E-04
     Gradient error          =      2.7E-03
     Cell gradient error     =      2.4E-05


     number of scf cycles    =   5
     number of bfgs steps    =   3

     enthalpy old            =    -219.5870865144 Ry
     enthalpy new            =    -219.5871956840 Ry

     CASE: enthalpy_new < enthalpy_old

     new trust radius        =       0.0112162213 bohr
     new conv_thr            =       0.0000000011 Ry

     new unit-cell volume =    370.94821 a.u.^3 (    54.96885 Ang^3 )
     density =      2.23822 g/cm^3

CELL_PARAMETERS (angstrom)
   1.807996425   3.130266158  -0.169736114
  -1.807996425   3.130266158  -0.169736114
  -0.000000000   0.368390397   4.836350538

ATOMIC_POSITIONS (angstrom)
Ca           -1.4958863780        3.1302661576       -0.1697361140
H             0.3400015051        4.4172840271        2.4819640588
H             0.3400015051        2.2116386852        2.0149142516
O             0.3104780206        4.4839085208        3.4582727594
O             0.3104780206        2.1450141915        1.0386055510



     Writing output data file ./out/H2CaO2.save/
     NEW-OLD atomic charge density approx. for the potential

     Check: negative core charge=   -0.000003
     extrapolated charge   24.17376, renormalised to   24.00000

     total cpu time spent up to now is      291.6 secs

     Self-consistent Calculation

     iteration #  1     ecut=    50.00 Ry     beta= 0.30
     Davidson diagonalization with overlap
     ethr =  1.00E-06,  avg # of iterations =  9.0

     total cpu time spent up to now is      295.8 secs

     total energy              =    -219.58300324 Ry
     estimated scf accuracy    <       0.00386823 Ry

     iteration #  2     ecut=    50.00 Ry     beta= 0.30
     Davidson diagonalization with overlap
     ethr =  1.61E-05,  avg # of iterations =  3.8

     total cpu time spent up to now is      299.0 secs

     total energy              =    -219.58752881 Ry
     estimated scf accuracy    <       0.00354113 Ry

     iteration #  3     ecut=    50.00 Ry     beta= 0.30
     Davidson diagonalization with overlap
     ethr =  1.48E-05,  avg # of iterations =  2.1

     total cpu time spent up to now is      300.5 secs

     total energy              =    -219.58701117 Ry
     estimated scf accuracy    <       0.00175441 Ry

     iteration #  4     ecut=    50.00 Ry     beta= 0.30
     Davidson diagonalization with overlap
     ethr =  7.31E-06,  avg # of iterations =  2.3

     total cpu time spent up to now is      302.5 secs

     total energy              =    -219.58729543 Ry
     estimated scf accuracy    <       0.00012012 Ry

     iteration #  5     ecut=    50.00 Ry     beta= 0.30
     Davidson diagonalization with overlap
     ethr =  5.00E-07,  avg # of iterations =  5.9

     total cpu time spent up to now is      305.2 secs

     total energy              =    -219.58730852 Ry
     estimated scf accuracy    <       0.00016879 Ry

     iteration #  6     ecut=    50.00 Ry     beta= 0.30
     Davidson diagonalization with overlap
     ethr =  5.00E-07,  avg # of iterations =  1.0

     total cpu time spent up to now is      307.0 secs

     total energy              =    -219.58719989 Ry
     estimated scf accuracy    <       0.00014462 Ry

     iteration #  7     ecut=    50.00 Ry     beta= 0.30
     Davidson diagonalization with overlap
     ethr =  5.00E-07,  avg # of iterations =  3.8

     total cpu time spent up to now is      310.9 secs

     total energy              =    -219.58726968 Ry
     estimated scf accuracy    <       0.00005026 Ry

     iteration #  8     ecut=    50.00 Ry     beta= 0.30
     Davidson diagonalization with overlap
     ethr =  2.09E-07,  avg # of iterations =  1.3

     total cpu time spent up to now is      312.2 secs

     total energy              =    -219.58727225 Ry
     estimated scf accuracy    <       0.00002835 Ry

     iteration #  9     ecut=    50.00 Ry     beta= 0.30
     Davidson diagonalization with overlap
     ethr =  1.18E-07,  avg # of iterations =  1.3

     total cpu time spent up to now is      313.6 secs

     total energy              =    -219.58727017 Ry
     estimated scf accuracy    <       0.00003139 Ry

     iteration # 10     ecut=    50.00 Ry     beta= 0.30
     Davidson diagonalization with overlap
     ethr =  1.18E-07,  avg # of iterations =  1.1

     total cpu time spent up to now is      315.7 secs

     total energy              =    -219.58726062 Ry
     estimated scf accuracy    <       0.00002459 Ry

     iteration # 11     ecut=    50.00 Ry     beta= 0.30
     Davidson diagonalization with overlap
     ethr =  1.02E-07,  avg # of iterations =  2.0

     total cpu time spent up to now is      318.1 secs

     total energy              =    -219.58726341 Ry
     estimated scf accuracy    <       0.00000171 Ry

     iteration # 12     ecut=    50.00 Ry     beta= 0.30
     Davidson diagonalization with overlap
     ethr =  7.13E-09,  avg # of iterations =  4.8

     total cpu time spent up to now is      320.9 secs

     total energy              =    -219.58726396 Ry
     estimated scf accuracy    <       0.00000034 Ry

     iteration # 13     ecut=    50.00 Ry     beta= 0.30
     Davidson diagonalization with overlap
     ethr =  1.40E-09,  avg # of iterations =  2.8

     total cpu time spent up to now is      322.8 secs

     total energy              =    -219.58726400 Ry
     estimated scf accuracy    <       0.00000025 Ry

     iteration # 14     ecut=    50.00 Ry     beta= 0.30
     Davidson diagonalization with overlap
     ethr =  1.04E-09,  avg # of iterations =  1.4

     total cpu time spent up to now is      324.5 secs

     total energy              =    -219.58726395 Ry
     estimated scf accuracy    <       0.00000019 Ry

     iteration # 15     ecut=    50.00 Ry     beta= 0.30
     Davidson diagonalization with overlap
     ethr =  8.01E-10,  avg # of iterations =  1.8

     total cpu time spent up to now is      326.4 secs

     total energy              =    -219.58726396 Ry
     estimated scf accuracy    <       0.00000005 Ry

     iteration # 16     ecut=    50.00 Ry     beta= 0.30
     Davidson diagonalization with overlap
     ethr =  2.29E-10,  avg # of iterations =  2.3

     total cpu time spent up to now is      330.2 secs

     total energy              =    -219.58726396 Ry
     estimated scf accuracy    <       0.00000005 Ry

     iteration # 17     ecut=    50.00 Ry     beta= 0.30
     Davidson diagonalization with overlap
     ethr =  2.06E-10,  avg # of iterations =  1.4

     total cpu time spent up to now is      332.2 secs

     total energy              =    -219.58726394 Ry
     estimated scf accuracy    <       0.00000005 Ry

     iteration # 18     ecut=    50.00 Ry     beta= 0.30
     Davidson diagonalization with overlap
     ethr =  1.98E-10,  avg # of iterations =  3.5

     total cpu time spent up to now is      334.7 secs

     total energy              =    -219.58726395 Ry
     estimated scf accuracy    <          2.8E-09 Ry

     iteration # 19     ecut=    50.00 Ry     beta= 0.30
     Davidson diagonalization with overlap
     ethr =  1.18E-11,  avg # of iterations =  6.3

     total cpu time spent up to now is      337.8 secs

     total energy              =    -219.58726396 Ry
     estimated scf accuracy    <       0.00000003 Ry

     iteration # 20     ecut=    50.00 Ry     beta= 0.30
     Davidson diagonalization with overlap
     ethr =  1.18E-11,  avg # of iterations =  2.0

     total cpu time spent up to now is      340.0 secs

     total energy              =    -219.58726395 Ry
     estimated scf accuracy    <       0.00000003 Ry

     iteration # 21     ecut=    50.00 Ry     beta= 0.30
     Davidson diagonalization with overlap
     ethr =  1.18E-11,  avg # of iterations =  2.6

     total cpu time spent up to now is      342.2 secs

     total energy              =    -219.58726395 Ry
[...]
     Pseudo is Projector augmented-wave + core cor, Zval = 10.0
     Generated using &quot;atomic&quot; code by A. Dal Corso  v.6.4.1
     Shape of augmentation charge: PSQ
     Using radial grid of 1169 points,  6 beta functions with: 
                l(1) =   0
                l(2) =   0
                l(3) =   1
                l(4) =   1
                l(5) =   2
                l(6) =   2
     Q(r) pseudized with 0 coefficients 


     PseudoPot. # 2 for H  read from file:
     /data/pseudopotentials/h_pbe_v1.4.uspp.F.UPF
     MD5 check sum: 761ae9a214b05c3daf00ab9f6b793d6f
     Pseudo is Ultrasoft, Zval =  1.0
     Generated by new atomic code, or converted to UPF format
     Using radial grid of  615 points,  2 beta functions with: 
                l(1) =   0
                l(2) =   0
     Q(r) pseudized with  8 coefficients,  rinner =    0.700

     PseudoPot. # 3 for O  read from file:
     /data/pseudopotentials/O.pbe-n-kjpaw_psl.0.1.UPF
     MD5 check sum: 833c495a5d0f9b75bf046115549bffff
     Pseudo is Projector augmented-wave + core cor, Zval =  6.0
     Generated using &quot;atomic&quot; code by A. Dal Corso  v.6.3
     Shape of augmentation charge: BESSEL
     Using radial grid of 1095 points,  4 beta functions with: 
                l(1) =   0
                l(2) =   0
                l(3) =   1
                l(4) =   1
     Q(r) pseudized with 0 coefficients 


     atomic species   valence    mass     pseudopotential
        Ca            10.00    40.07800     Ca( 1.00)
        H              1.00     1.00800     H ( 1.00)
        O              6.00    15.99900     O ( 1.00)

      2 Sym. Ops. (no inversion) found



   Cartesian axes

     site n.     atom                  positions (alat units)
         1           Ca  tau(   1) = (  -0.4138688   0.8725438  -0.0544144  )
         2           H   tau(   2) = (   0.0893136   1.2187222   0.7173554  )
         3           H   tau(   3) = (   0.0893136   0.6196933   0.5538044  )
         4           O   tau(   4) = (   0.0904455   1.2372484   0.9892708  )
         5           O   tau(   5) = (   0.0904455   0.6011670   0.2818890  )

     number of k points=    24  Gaussian smearing, width (Ry)=  0.0050
                       cart. coord. in units 2pi/alat
        k(    1) = (   0.0000000   0.0000000   0.0000000), wk =   0.0312500
        k(    2) = (   0.0000000   0.0112503   0.1804001), wk =   0.0625000
        k(    3) = (   0.0000000  -0.0225005  -0.3608001), wk =   0.0312500
        k(    4) = (  -0.2479593   0.1426576  -0.0096479), wk =   0.1250000
        k(    5) = (  -0.2479593   0.1539079   0.1707522), wk =   0.1250000
        k(    6) = (  -0.2479593   0.1201571  -0.3704480), wk =   0.1250000
        k(    7) = (  -0.2479593   0.1314073  -0.1900479), wk =   0.1250000
        k(    8) = (   0.4959186  -0.2853152   0.0192957), wk =   0.0625000
        k(    9) = (   0.4959186  -0.2740650   0.1996958), wk =   0.1250000
        k(   10) = (   0.4959186  -0.3078158  -0.3415044), wk =   0.0625000
        k(   11) = (   0.0000000   0.2853152  -0.0192957), wk =   0.0625000
        k(   12) = (   0.0000000   0.2965655   0.1611044), wk =   0.0625000
        k(   13) = (   0.0000000   0.2628147  -0.3800958), wk =   0.0625000
        k(   14) = (   0.0000000   0.2740650  -0.1996958), wk =   0.0625000
        k(   15) = (   0.7438779  -0.1426576   0.0096479), wk =   0.1250000
        k(   16) = (   0.7438779  -0.1314073   0.1900479), wk =   0.1250000
        k(   17) = (   0.7438779  -0.1651582  -0.3511523), wk =   0.1250000
        k(   18) = (   0.7438779  -0.1539079  -0.1707522), wk =   0.1250000
        k(   19) = (   0.4959186  -0.0000000  -0.0000000), wk =   0.0625000
        k(   20) = (   0.4959186   0.0112503   0.1804001), wk =   0.1250000
        k(   21) = (   0.4959186  -0.0225005  -0.3608001), wk =   0.0625000
        k(   22) = (   0.0000000  -0.5706305   0.0385914), wk =   0.0312500
        k(   23) = (   0.0000000  -0.5593802   0.2189915), wk =   0.0625000
        k(   24) = (   0.0000000  -0.5931310  -0.3222087), wk =   0.0312500

     Dense  grid:    51255 G-vectors     FFT dimensions: (  45,  45,  60)

     Smooth grid:    18145 G-vectors     FFT dimensions: (  32,  32,  45)

     Estimated max dynamical RAM per process >      39.88 MB

     Estimated total dynamical RAM >     319.05 MB

     Check: negative core charge=   -0.000003

     Initial potential from superposition of free atoms

     starting charge   23.99512, renormalised to   24.00000
     Starting wfcs are   18 randomized atomic wfcs
     Checking if some PAW data can be deallocated... 

     total cpu time spent up to now is     1475.3 secs

     Self-consistent Calculation

     iteration #  1     ecut=    50.00 Ry     beta= 0.30
     Davidson diagonalization with overlap
     c_bands:  2 eigenvalues not converged
     c_bands:  2 eigenvalues not converged
     c_bands:  3 eigenvalues not converged
     c_bands:  3 eigenvalues not converged
     c_bands:  3 eigenvalues not converged
     c_bands:  4 eigenvalues not converged
     c_bands:  4 eigenvalues not converged
     c_bands:  3 eigenvalues not converged
     c_bands:  4 eigenvalues not converged
     c_bands:  3 eigenvalues not converged
     c_bands:  3 eigenvalues not converged
     c_bands:  4 eigenvalues not converged
     ethr =  1.00E-06,  avg # of iterations = 20.0

     total cpu time spent up to now is     1485.1 secs

     total energy              =    -219.45491709 Ry
     estimated scf accuracy    <       0.98059024 Ry

     iteration #  2     ecut=    50.00 Ry     beta= 0.30
     Davidson diagonalization with overlap
     ethr =  4.09E-03,  avg # of iterations =  2.0

     total cpu time spent up to now is     1487.3 secs

     total energy              =    -219.55990558 Ry
     estimated scf accuracy    <       0.08178869 Ry

     iteration #  3     ecut=    50.00 Ry     beta= 0.30
     Davidson diagonalization with overlap
     ethr =  3.41E-04,  avg # of iterations =  5.4

     total cpu time spent up to now is     1490.2 secs

     total energy              =    -219.57932670 Ry
     estimated scf accuracy    <       0.03046651 Ry

     iteration #  4     ecut=    50.00 Ry     beta= 0.30
     Davidson diagonalization with overlap
     ethr =  1.27E-04,  avg # of iterations =  4.8

     total cpu time spent up to now is     1493.3 secs

     total energy              =    -219.58188487 Ry
     estimated scf accuracy    <       0.03754139 Ry

     iteration #  5     ecut=    50.00 Ry     beta= 0.30
     Davidson diagonalization with overlap
     ethr =  1.27E-04,  avg # of iterations =  2.0

     total cpu time spent up to now is     1495.3 secs

     total energy              =    -219.58652191 Ry
     estimated scf accuracy    <       0.00112447 Ry

     iteration #  6     ecut=    50.00 Ry     beta= 0.30
     Davidson diagonalization with overlap
     c_bands:  1 eigenvalues not converged
     c_bands:  1 eigenvalues not converged
     c_bands:  1 eigenvalues not converged
     c_bands:  1 eigenvalues not converged
     ethr =  4.69E-06,  avg # of iterations = 14.0

     total cpu time spent up to now is     1501.5 secs

     total energy              =    -219.58756834 Ry
     estimated scf accuracy    <       0.00205424 Ry

     iteration #  7     ecut=    50.00 Ry     beta= 0.30
     Davidson diagonalization with overlap
     ethr =  4.69E-06,  avg # of iterations =  4.7

     total cpu time spent up to now is     1504.2 secs

     total energy              =    -219.58797776 Ry
     estimated scf accuracy    <       0.00001037 Ry

     iteration #  8     ecut=    50.00 Ry     beta= 0.30
     Davidson diagonalization with overlap
     c_bands:  1 eigenvalues not converged
     ethr =  4.32E-08,  avg # of iterations =  9.4

     total cpu time spent up to now is     1509.7 secs

     total energy              =    -219.58800592 Ry
     estimated scf accuracy    <       0.00006426 Ry

     iteration #  9     ecut=    50.00 Ry     beta= 0.30
     Davidson diagonalization with overlap
     ethr =  4.32E-08,  avg # of iterations =  4.6

     total cpu time spent up to now is     1512.3 secs

     total energy              =    -219.58800871 Ry
     estimated scf accuracy    <       0.00000770 Ry

     iteration # 10     ecut=    50.00 Ry     beta= 0.30
     Davidson diagonalization with overlap
     ethr =  3.21E-08,  avg # of iterations =  2.1

     total cpu time spent up to now is     1515.1 secs

     total energy              =    -219.58801002 Ry
     estimated scf accuracy    <       0.00000032 Ry

     iteration # 11     ecut=    50.00 Ry     beta= 0.30
     Davidson diagonalization with overlap
     ethr =  1.32E-09,  avg # of iterations =  6.3

     total cpu time spent up to now is     1519.0 secs

     total energy              =    -219.58801068 Ry
     estimated scf accuracy    <       0.00000026 Ry

     iteration # 12     ecut=    50.00 Ry     beta= 0.30
     Davidson diagonalization with overlap
     ethr =  1.09E-09,  avg # of iterations =  2.0

     total cpu time spent up to now is     1521.9 secs

     total energy              =    -219.58801070 Ry
     estimated scf accuracy    <       0.00000002 Ry

     iteration # 13     ecut=    50.00 Ry     beta= 0.30
     Davidson diagonalization with overlap
     ethr =  8.97E-11,  avg # of iterations =  5.9

     total cpu time spent up to now is     1524.9 secs

     total energy              =    -219.58801070 Ry
     estimated scf accuracy    <       0.00000004 Ry

     iteration # 14     ecut=    50.00 Ry     beta= 0.30
     Davidson diagonalization with overlap
     ethr =  8.97E-11,  avg # of iterations =  4.6

     total cpu time spent up to now is     1527.4 secs

     total energy              =    -219.58801072 Ry
     estimated scf accuracy    <          5.1E-09 Ry

     iteration # 15     ecut=    50.00 Ry     beta= 0.30
     Davidson diagonalization with overlap
     ethr =  2.13E-11,  avg # of iterations =  2.0

     total cpu time spent up to now is     1529.6 secs

     total energy              =    -219.58801072 Ry
     estimated scf accuracy    <          7.8E-10 Ry

     iteration # 16     ecut=    50.00 Ry     beta= 0.30
     Davidson diagonalization with overlap
     ethr =  3.27E-12,  avg # of iterations =  6.6

     total cpu time spent up to now is     1533.6 secs

     total energy              =    -219.58801072 Ry
     estimated scf accuracy    <          3.0E-09 Ry

     iteration # 17     ecut=    50.00 Ry     beta= 0.30
     Davidson diagonalization with overlap
     ethr =  3.27E-12,  avg # of iterations =  4.8

     total cpu time spent up to now is     1536.3 secs

     End of self-consistent calculation

          k = 0.0000 0.0000 0.0000 (  2253 PWs)   bands (ev):

   -34.4832 -15.9529 -15.3877 -15.3870 -14.5218 -13.4821  -2.6874  -0.6891
     1.6342   1.6395   2.7125   2.7224   6.8196  10.2310  10.6101  11.1008

          k = 0.0000 0.0113 0.1804 (  2285 PWs)   bands (ev):

   -34.4831 -16.0012 -15.3877 -15.3870 -14.3650 -13.5988  -2.4562  -1.0596
     1.6973   1.6977   2.6352   2.6377   7.4479  10.0644  10.5430  11.3288

          k = 0.0000-0.0225-0.3608 (  2290 PWs)   bands (ev):

   -34.4830 -16.0448 -15.3875 -15.3869 -14.1376 -13.7907  -1.9458  -1.6973
     1.7658   1.7743   2.5400   2.5474   8.3280   9.8683  10.4702  11.0575

          k =-0.2480 0.1427-0.0096 (  2268 PWs)   bands (ev):

   -34.4659 -15.9145 -15.7537 -15.4245 -14.0516 -13.6819  -2.2738  -1.0250
     1.5725   1.7867   1.8566   2.4775   8.1912   9.4746  10.2310  11.1158

          k =-0.2480 0.1539 0.1708 (  2268 PWs)   bands (ev):

   -34.4658 -15.9363 -15.7425 -15.4243 -13.9034 -13.8234  -2.1075  -1.3457
     1.6760   1.9382   1.9399   2.2917   8.5480   9.4483  10.7295  11.1128

          k =-0.2480 0.1202-0.3704 (  2262 PWs)   bands (ev):

   -34.4657 -15.9164 -15.7673 -15.4240 -13.9919 -13.7265  -1.8847  -1.7492
     1.8274   1.8607   2.0047   2.4142   8.7920   9.8687  10.4317  11.0378

          k =-0.2480 0.1314-0.1900 (  2268 PWs)   bands (ev):

   -34.4658 -15.8863 -15.7870 -15.4242 -14.0861 -13.6388  -2.2176  -1.2824
     1.7196   1.7571   1.9461   2.5561   8.3468   9.8546  10.1322  11.0392

          k = 0.4959-0.2853 0.0193 (  2284 PWs)   bands (ev):

   -34.4485 -16.2099 -15.5497 -15.4611 -14.1208 -13.5705  -1.6384  -1.5384
     0.8726   1.8871   2.0661   2.1173   8.8060   9.9326  10.2334  11.7135

          k = 0.4959-0.2741 0.1997 (  2280 PWs)   bands (ev):

   -34.4484 -16.1960 -15.5532 -15.4607 -14.1834 -13.5188  -1.8392  -1.5033
     1.1296   1.8819   1.8907   2.3013   9.1307  10.0137  10.4522  11.6918

          k = 0.4959-0.3078-0.3415 (  2250 PWs)   bands (ev):

   -34.4483 -16.1817 -15.5565 -15.4603 -14.2387 -13.4747  -1.9773  -1.5165
     1.4496   1.7983   1.8135   2.3874   9.5314  10.1848  11.0215  11.3463

          k = 0.0000 0.2853-0.0193 (  2271 PWs)   bands (ev):

   -34.4660 -15.9167 -15.7527 -15.4237 -14.0505 -13.6822  -2.2753  -1.0232
     1.5678   1.7844   1.8633   2.4841   8.1908   9.4722  10.2228  11.1201

          k = 0.0000 0.2966 0.1611 (  2268 PWs)   bands (ev):

   -34.4659 -15.8872 -15.7862 -15.4235 -14.0898 -13.6355  -2.2203  -1.2794
     1.7199   1.7563   1.9485   2.5597   8.3425   9.8503  10.1428  11.0438

          k = 0.0000 0.2628-0.3801 (  2263 PWs)   bands (ev):

   -34.4658 -15.9167 -15.7674 -15.4232 -13.9978 -13.7210  -1.8857  -1.7432
     1.8325   1.8626   1.9956   2.4125   8.7881   9.8674  10.4362  11.0418

          k = 0.0000 0.2741-0.1997 (  2269 PWs)   bands (ev):

   -34.4659 -15.9380 -15.7421 -15.4235 -13.8992 -13.8268  -2.1051  -1.3428
     1.6711   1.9364   1.9421   2.2926   8.5513   9.4419  10.7237  11.1165

          k = 0.7439-0.1427 0.0096 (  2275 PWs)   bands (ev):

   -34.4486 -16.0484 -15.7342 -15.5352 -13.8453 -13.7466  -1.7953  -1.3906
     1.1775   1.6215   1.7060   2.4438   9.3878   9.6517   9.7150  11.6506

          k = 0.7439-0.1314 0.1900 (  2264 PWs)   bands (ev):

   -34.4485 -16.0347 -15.7390 -15.5369 -13.9179 -13.6850  -1.8099  -1.5096
     1.3695   1.6620   1.8151   2.2896   9.6419   9.8340  10.1387  11.5536

          k = 0.7439-0.1652-0.3512 (  2269 PWs)   bands (ev):

   -34.4484 -16.0191 -15.7459 -15.5386 -13.9695 -13.6440  -1.8116  -1.6316
     1.5497   1.8814   1.9140   1.9694  10.0718  10.1974  10.5109  11.2117

          k = 0.7439-0.1539-0.1708 (  2262 PWs)   bands (ev):

   -34.4485 -16.0336 -15.7402 -15.5370 -13.9247 -13.6778  -1.8122  -1.5074
     1.3674   1.6617   1.8119   2.2956   9.6550   9.8319  10.1220  11.5448

          k = 0.4959-0.0000-0.0000 (  2272 PWs)   bands (ev):

   -34.4485 -16.0481 -15.7338 -15.5350 -13.8504 -13.7427  -1.7879  -1.3990
     1.1791   1.6197   1.7079   2.4373   9.3933   9.6512   9.7143  11.6556

          k = 0.4959 0.0113 0.1804 (  2260 PWs)   bands (ev):

   -34.4484 -16.0345 -15.7389 -15.5367 -13.9205 -13.6829  -1.8061  -1.5171
     1.3698   1.6609   1.8169   2.2892   9.6507   9.8286  10.1320  11.5547

          k = 0.4959-0.0225-0.3608 (  2270 PWs)   bands (ev):

   -34.4484 -16.0203 -15.7449 -15.5383 -13.9663 -13.6475  -1.8091  -1.6400
     1.5455   1.8902   1.9151   1.9690  10.0685  10.1949  10.5045  11.2190

          k = 0.0000-0.5706 0.0386 (  2286 PWs)   bands (ev):

   -34.4487 -16.2123 -15.5500 -15.4601 -14.1115 -13.5777  -1.6562  -1.5166
     0.8649   1.8972   2.0662   2.1222   8.8040   9.9196  10.2274  11.7149

          k = 0.0000-0.5594 0.2190 (  2280 PWs)   bands (ev):

   -34.4486 -16.1969 -15.5535 -15.4597 -14.1846 -13.5169  -1.8434  -1.4923
     1.1194   1.8852   1.8954   2.3042   9.1319  10.0153  10.4391  11.6912

          k = 0.0000-0.5931-0.3222 (  2248 PWs)   bands (ev):

   -34.4485 -16.1810 -15.5568 -15.4593 -14.2477 -13.4664  -1.9784  -1.5067
     1.4386   1.8001   1.8144   2.3903   9.5314  10.2071  11.0118  11.3253

     the Fermi energy is     6.0422 ev

!    total energy              =    -219.58801072 Ry
     estimated scf accuracy    <          5.2E-12 Ry
     smearing contrib. (-TS)   =      -0.00000000 Ry
     internal energy E=F+TS    =    -219.58801072 Ry

     The total energy is F=E-TS. E is the sum of the following terms:
     one-electron contribution =     -64.51231028 Ry
     hartree contribution      =      42.57864744 Ry
     xc contribution           =     -28.63130888 Ry
     ewald contribution        =     -90.01693411 Ry
     one-center paw contrib.   =     -79.00610487 Ry

     convergence has been achieved in  17 iterations

     Forces acting on atoms (cartesian axes, Ry/au):

     atom    1 type  1   force =     0.00004912    0.00000000    0.00000000
     atom    2 type  2   force =     0.00006018    0.00005351   -0.00000021
     atom    3 type  2   force =     0.00006018   -0.00005351    0.00000021
     atom    4 type  3   force =    -0.00008474   -0.00009388    0.00004198
     atom    5 type  3   force =    -0.00008474    0.00009388   -0.00004198

     Total force =     0.000226     Total SCF correction =     0.000003


     Computing stress (Cartesian axis) and pressure

          total   stress  (Ry/bohr**3)                   (kbar)     P=        0.26
   0.00000319   0.00000000  -0.00000000            0.47        0.00       -0.00
  -0.00000000  -0.00000152  -0.00000201           -0.00       -0.22       -0.30
   0.00000000  -0.00000201   0.00000366            0.00       -0.30        0.54


     Writing output data file ./out/H2CaO2.save/

     init_run     :      7.71s CPU     10.21s WALL (       2 calls)
     electrons    :    956.11s CPU   1200.24s WALL (      30 calls)
     update_pot   :     91.19s CPU    112.68s WALL (      28 calls)
     forces       :     53.63s CPU     65.25s WALL (      30 calls)
     stress       :    114.66s CPU    139.74s WALL (      30 calls)

     Called by init_run:
     wfcinit      :      1.14s CPU      1.32s WALL (       2 calls)
     potinit      :      2.05s CPU      3.05s WALL (       2 calls)
     hinit0       :      4.04s CPU      5.29s WALL (       2 calls)

     Called by electrons:
     c_bands      :    712.24s CPU    892.00s WALL (     417 calls)
     sum_band     :    106.31s CPU    133.14s WALL (     417 calls)
     v_of_rho     :     17.22s CPU     21.96s WALL (     437 calls)
     newd         :     30.56s CPU     37.51s WALL (     437 calls)
     PAW_pot      :     93.01s CPU    118.22s WALL (     465 calls)
     mix_rho      :      2.88s CPU      3.98s WALL (     417 calls)

     Called by c_bands:
     init_us_2    :      3.82s CPU      4.58s WALL (   11088 calls)
     cegterg      :    539.48s CPU    691.29s WALL (    5004 calls)

     Called by *egterg:
     cdiaghg      :     69.63s CPU     90.15s WALL (   21989 calls)
     h_psi        :    262.57s CPU    340.97s WALL (   22469 calls)
     s_psi        :     18.48s CPU     23.15s WALL (   22469 calls)
     g_psi        :      0.85s CPU      1.08s WALL (   17441 calls)

     Called by h_psi:
     h_psi:calbec :     39.22s CPU     50.05s WALL (   22469 calls)
     vloc_psi     :    203.90s CPU    266.52s WALL (   22469 calls)
     add_vuspsi   :     18.74s CPU     23.49s WALL (   22469 calls)

     General routines
     calbec       :     59.39s CPU     75.43s WALL (   29609 calls)
     fft          :     27.43s CPU     33.15s WALL (    6409 calls)
     ffts         :      1.29s CPU      1.67s WALL (     854 calls)
     fftw         :    226.74s CPU    296.30s WALL (  539324 calls)
     interpolate  :      1.28s CPU      1.67s WALL (     437 calls)

     Parallel routines
     fft_scatt_xy :     13.14s CPU     17.10s WALL (  546587 calls)
     fft_scatt_yz :    197.15s CPU    255.71s WALL (  546587 calls)

     PWSCF        :  20m35.57s CPU  25m43.23s WALL


   This run was terminated on:  13:47:53   1Jul2026            

=------------------------------------------------------------------------------=
   JOB DONE.
=------------------------------------------------------------------------------=
