
     Program PWSCF v.6.7MaX starts on  1Jul2026 at 13:47:54 

     This program is part of the open-source Quantum ESPRESSO suite
     for quantum simulation of materials; please cite
         "P. Giannozzi et al., J. Phys.:Condens. Matter 21 395502 (2009);
         "P. Giannozzi et al., J. Phys.:Condens. Matter 29 465901 (2017);
          URL http://www.quantum-espresso.org", 
     in publications or presentations arising from this work. More details at
     http://www.quantum-espresso.org/quote

     Parallel version (MPI), running on     8 processors

     MPI processes distributed on     1 nodes
     K-points division:     npool     =       2
     R & G space division:  proc/nbgrp/npool/nimage =       4
     Waiting for input...
     Reading input from standard input
Warning: card &CELL ignored
Warning: card / ignored

     Current dimensions of program PWSCF are:
     Max number of different atomic species (ntypx) = 10
     Max number of k-points (npk) =  40000
     Max angular momentum in pseudopotentials (lmaxx) =  3
     file Ca.pbe-spn-kjpaw_psl.1.0.0.UPF: wavefunction(s)  3S renormalized
     file O.pbe-n-kjpaw_psl.0.1.UPF: wavefunction(s)  2P renormalized

     Subspace diagonalization in iterative solution of the eigenvalue problem:
     one sub-group per band group will be used
     scalapack distributed-memory algorithm (size of sub-group:  2*  2 procs)


     Parallelization info
     --------------------
     sticks:   dense  smooth     PW     G-vecs:    dense   smooth      PW
     Min         317     159     49                12223     4322     761
     Max         319     160     50                12225     4327     765
     Sum        1273     637    199                48895    17295    3055



     bravais-lattice index     =            0
     lattice parameter (alat)  =       6.7798  a.u.
     unit-cell volume          =     361.6405 (a.u.)^3
     number of atoms/cell      =            5
     number of atomic types    =            3
     number of electrons       =        24.00
     number of Kohn-Sham states=           12
     kinetic-energy cutoff     =      50.0000  Ry
     charge density cutoff     =     400.0000  Ry
     scf convergence threshold =      1.0E-10
     mixing beta               =       0.3000
     number of iterations used =            8  plain     mixing
     Exchange-correlation= SLA  PW   PBX  PBC
                           (   1   4   3   4   0   0   0)

     celldm(1)=   6.779801  celldm(2)=   0.000000  celldm(3)=   0.000000
     celldm(4)=   0.000000  celldm(5)=   0.000000  celldm(6)=   0.000000

     crystal axes: (cart. coord. in units of alat)
               a(1) = (   0.500014   0.864805  -0.045805 )  
               a(2) = (  -0.500014   0.864805  -0.045805 )  
               a(3) = (  -0.000000   0.103464   1.336345 )  

     reciprocal axes: (cart. coord. in units 2 pi/alat)
               b(1) = (  0.999972  0.575804 -0.044581 )  
               b(2) = ( -0.999972  0.575804 -0.044581 )  
               b(3) = (  0.000000  0.039473  0.745254 )  


     PseudoPot. # 1 for Ca read from file:
     /data/pseudopotentials/Ca.pbe-spn-kjpaw_psl.1.0.0.UPF
     MD5 check sum: 1e11ab70c77b02a7d7d676f41d47b751
     Pseudo is Projector augmented-wave + core cor, Zval = 10.0
     Generated using &quot;atomic&quot; code by A. Dal Corso  v.6.4.1
     Shape of augmentation charge: PSQ
     Using radial grid of 1169 points,  6 beta functions with: 
                l(1) =   0
                l(2) =   0
                l(3) =   1
                l(4) =   1
                l(5) =   2
                l(6) =   2
     Q(r) pseudized with 0 coefficients 


     PseudoPot. # 2 for H  read from file:
     /data/pseudopotentials/h_pbe_v1.4.uspp.F.UPF
     MD5 check sum: 761ae9a214b05c3daf00ab9f6b793d6f
     Pseudo is Ultrasoft, Zval =  1.0
     Generated by new atomic code, or converted to UPF format
     Using radial grid of  615 points,  2 beta functions with: 
                l(1) =   0
                l(2) =   0
     Q(r) pseudized with  8 coefficients,  rinner =    0.700

     PseudoPot. # 3 for O  read from file:
     /data/pseudopotentials/O.pbe-n-kjpaw_psl.0.1.UPF
     MD5 check sum: 833c495a5d0f9b75bf046115549bffff
     Pseudo is Projector augmented-wave + core cor, Zval =  6.0
     Generated using &quot;atomic&quot; code by A. Dal Corso  v.6.3
     Shape of augmentation charge: BESSEL
     Using radial grid of 1095 points,  4 beta functions with: 
                l(1) =   0
                l(2) =   0
                l(3) =   1
                l(4) =   1
     Q(r) pseudized with 0 coefficients 


     atomic species   valence    mass     pseudopotential
        Ca            10.00    40.07800     Ca( 1.00)
        H              1.00     1.00800     H ( 1.00)
        O              6.00    15.99900     O ( 1.00)

     No symmetry found



   Cartesian axes

     site n.     atom                  positions (alat units)
         1           Ca  tau(   1) = (  -0.4142703   0.8648051  -0.0458051  )
         2           H   tau(   2) = (   0.0943492   1.2215535   0.6867368  )
         3           H   tau(   3) = (   0.0943492   0.6115209   0.5579975  )
         4           O   tau(   4) = (   0.0858317   1.2402749   0.9551872  )
         5           O   tau(   5) = (   0.0858317   0.5927995   0.2895471  )

     number of k points=   112

     Number of k-points >= 100: set verbosity='high' to print them.

     Dense  grid:    48895 G-vectors     FFT dimensions: (  45,  45,  60)

     Smooth grid:    17295 G-vectors     FFT dimensions: (  32,  32,  45)

     Estimated max dynamical RAM per process >      37.40 MB

     Estimated total dynamical RAM >     299.21 MB

     Check: negative core charge=   -0.000003

     Initial potential from superposition of free atoms

     starting charge   23.99512, renormalised to   24.00000
     Starting wfcs are   18 randomized atomic wfcs
     Checking if some PAW data can be deallocated... 

     total cpu time spent up to now is        6.6 secs

     Self-consistent Calculation

     iteration #  1     ecut=    50.00 Ry     beta= 0.30
     Davidson diagonalization with overlap
     ethr =  1.00E-02,  avg # of iterations =  2.0

     total cpu time spent up to now is       13.3 secs

     total energy              =    -219.35680346 Ry
     estimated scf accuracy    <       1.08692324 Ry

     iteration #  2     ecut=    50.00 Ry     beta= 0.30
     Davidson diagonalization with overlap
     ethr =  4.53E-03,  avg # of iterations =  2.0

     total cpu time spent up to now is       20.1 secs

     total energy              =    -219.52203167 Ry
     estimated scf accuracy    <       0.08536302 Ry

     iteration #  3     ecut=    50.00 Ry     beta= 0.30
     Davidson diagonalization with overlap
     ethr =  3.56E-04,  avg # of iterations =  6.1

     total cpu time spent up to now is       30.8 secs

     total energy              =    -219.57227426 Ry
     estimated scf accuracy    <       0.04685719 Ry

     iteration #  4     ecut=    50.00 Ry     beta= 0.30
     Davidson diagonalization with overlap
     ethr =  1.95E-04,  avg # of iterations =  3.8

     total cpu time spent up to now is       40.5 secs

     total energy              =    -219.58604861 Ry
     estimated scf accuracy    <       0.01687025 Ry

     iteration #  5     ecut=    50.00 Ry     beta= 0.30
     Davidson diagonalization with overlap
     ethr =  7.03E-05,  avg # of iterations =  1.7

     total cpu time spent up to now is       46.9 secs

     total energy              =    -219.58362936 Ry
     estimated scf accuracy    <       0.00539152 Ry

     iteration #  6     ecut=    50.00 Ry     beta= 0.30
     Davidson diagonalization with overlap
     ethr =  2.25E-05,  avg # of iterations =  4.8

     total cpu time spent up to now is       55.7 secs

     total energy              =    -219.58606053 Ry
     estimated scf accuracy    <       0.00060263 Ry

     iteration #  7     ecut=    50.00 Ry     beta= 0.30
     Davidson diagonalization with overlap
     ethr =  2.51E-06,  avg # of iterations =  4.5

     total cpu time spent up to now is       63.6 secs

     total energy              =    -219.58623436 Ry
     estimated scf accuracy    <       0.00012070 Ry

     iteration #  8     ecut=    50.00 Ry     beta= 0.30
     Davidson diagonalization with overlap
     ethr =  5.03E-07,  avg # of iterations =  4.4

     total cpu time spent up to now is       72.7 secs

     total energy              =    -219.58628187 Ry
     estimated scf accuracy    <       0.00000500 Ry

     iteration #  9     ecut=    50.00 Ry     beta= 0.30
     Davidson diagonalization with overlap
     ethr =  2.08E-08,  avg # of iterations =  6.9

     total cpu time spent up to now is       83.8 secs

     total energy              =    -219.58628742 Ry
     estimated scf accuracy    <       0.00000104 Ry

     iteration # 10     ecut=    50.00 Ry     beta= 0.30
     Davidson diagonalization with overlap
     ethr =  4.33E-09,  avg # of iterations =  5.9

     total cpu time spent up to now is       95.1 secs

     total energy              =    -219.58628751 Ry
     estimated scf accuracy    <       0.00000222 Ry

     iteration # 11     ecut=    50.00 Ry     beta= 0.30
     Davidson diagonalization with overlap
     ethr =  4.33E-09,  avg # of iterations =  5.4

     total cpu time spent up to now is      104.9 secs

     total energy              =    -219.58628823 Ry
     estimated scf accuracy    <       0.00000026 Ry

     iteration # 12     ecut=    50.00 Ry     beta= 0.30
     Davidson diagonalization with overlap
     ethr =  1.10E-09,  avg # of iterations =  2.1

     total cpu time spent up to now is      112.4 secs

     total energy              =    -219.58628819 Ry
     estimated scf accuracy    <       0.00000011 Ry

     iteration # 13     ecut=    50.00 Ry     beta= 0.30
     Davidson diagonalization with overlap
     ethr =  4.66E-10,  avg # of iterations =  5.4

     total cpu time spent up to now is      123.6 secs

     total energy              =    -219.58628824 Ry
     estimated scf accuracy    <       0.00000005 Ry

     iteration # 14     ecut=    50.00 Ry     beta= 0.30
     Davidson diagonalization with overlap
     ethr =  1.97E-10,  avg # of iterations =  2.1

     total cpu time spent up to now is      132.1 secs

     total energy              =    -219.58628825 Ry
     estimated scf accuracy    <          3.6E-09 Ry

     iteration # 15     ecut=    50.00 Ry     beta= 0.30
     Davidson diagonalization with overlap
     ethr =  1.48E-11,  avg # of iterations =  6.1

     total cpu time spent up to now is      142.2 secs

     total energy              =    -219.58628825 Ry
     estimated scf accuracy    <          1.5E-09 Ry

     iteration # 16     ecut=    50.00 Ry     beta= 0.30
     Davidson diagonalization with overlap
     ethr =  6.24E-12,  avg # of iterations =  6.2

     total cpu time spent up to now is      154.6 secs

     total energy              =    -219.58628825 Ry
     estimated scf accuracy    <       0.00000001 Ry

     iteration # 17     ecut=    50.00 Ry     beta= 0.30
     Davidson diagonalization with overlap
     ethr =  6.24E-12,  avg # of iterations =  4.0

     total cpu time spent up to now is      162.9 secs

     total energy              =    -219.58628825 Ry
     estimated scf accuracy    <          3.9E-09 Ry

     iteration # 18     ecut=    50.00 Ry     beta= 0.30
     Davidson diagonalization with overlap
     ethr =  6.24E-12,  avg # of iterations =  2.3

     total cpu time spent up to now is      171.4 secs

     total energy              =    -219.58628825 Ry
     estimated scf accuracy    <          1.3E-09 Ry

     iteration # 19     ecut=    50.00 Ry     beta= 0.30
     Davidson diagonalization with overlap
     ethr =  5.25E-12,  avg # of iterations =  2.0

     total cpu time spent up to now is      177.7 secs

     total energy              =    -219.58628825 Ry
     estimated scf accuracy    <          5.6E-10 Ry

     iteration # 20     ecut=    50.00 Ry     beta= 0.30
     Davidson diagonalization with overlap
     ethr =  2.32E-12,  avg # of iterations =  5.3

     total cpu time spent up to now is      188.5 secs

     End of self-consistent calculation

     Number of k-points >= 100: set verbosity='high' to print the bands.

     highest occupied level (ev):     3.1645

!    total energy              =    -219.58628825 Ry
     estimated scf accuracy    <          2.5E-11 Ry

     The total energy is the sum of the following terms:
     one-electron contribution =     -59.58190111 Ry
     hartree contribution      =      40.49749149 Ry
     xc contribution           =     -28.67957698 Ry
     ewald contribution        =     -92.81782823 Ry
     one-center paw contrib.   =     -79.00447341 Ry

     convergence has been achieved in  20 iterations

     Forces acting on atoms (cartesian axes, Ry/au):

     atom    1 type  1   force =     0.00081094    0.00000021   -0.00000004
     atom    2 type  2   force =     0.00039182   -0.00194577   -0.02378055
     atom    3 type  2   force =     0.00039181    0.00194575    0.02378067
     atom    4 type  3   force =    -0.00079730    0.00141018    0.02528822
     atom    5 type  3   force =    -0.00079726   -0.00141036   -0.02528830

     Total force =     0.049232     Total SCF correction =     0.000012


     Computing stress (Cartesian axis) and pressure

          total   stress  (Ry/bohr**3)                   (kbar)     P=       25.81
   0.00009168  -0.00000000   0.00000000           13.49       -0.00        0.00
  -0.00000000   0.00009871   0.00000650           -0.00       14.52        0.96
   0.00000000   0.00000650   0.00033598            0.00        0.96       49.43


     Writing output data file ./out/H2CaO2.save/

     init_run     :      4.72s CPU      5.51s WALL (       1 calls)
     electrons    :    143.64s CPU    181.99s WALL (       1 calls)
     forces       :      2.04s CPU      2.58s WALL (       1 calls)
     stress       :      3.02s CPU      4.25s WALL (       1 calls)

     Called by init_run:
     wfcinit      :      1.78s CPU      2.42s WALL (       1 calls)
     potinit      :      1.29s CPU      1.37s WALL (       1 calls)
     hinit0       :      1.48s CPU      1.49s WALL (       1 calls)

     Called by electrons:
     c_bands      :    126.00s CPU    159.83s WALL (      20 calls)
     sum_band     :     11.70s CPU     14.39s WALL (      20 calls)
     v_of_rho     :      0.68s CPU      0.88s WALL (      21 calls)
     newd         :      1.40s CPU      1.80s WALL (      21 calls)
     PAW_pot      :      3.89s CPU      4.98s WALL (      21 calls)
     mix_rho      :      0.13s CPU      0.18s WALL (      20 calls)

     Called by c_bands:
     init_us_2    :      0.83s CPU      1.00s WALL (    2408 calls)
     cegterg      :     86.78s CPU    113.58s WALL (    1120 calls)

     Called by *egterg:
     cdiaghg      :     10.98s CPU     14.34s WALL (    5803 calls)
     h_psi        :     44.44s CPU     59.03s WALL (    5859 calls)
     s_psi        :      3.58s CPU      4.62s WALL (    5859 calls)
     g_psi        :      0.17s CPU      0.24s WALL (    4683 calls)

     Called by h_psi:
     h_psi:calbec :      6.39s CPU      8.40s WALL (    5859 calls)
     vloc_psi     :     34.27s CPU     45.66s WALL (    5859 calls)
     add_vuspsi   :      3.63s CPU      4.79s WALL (    5859 calls)

     General routines
     calbec       :      9.46s CPU     12.08s WALL (    7259 calls)
     fft          :      1.12s CPU      1.34s WALL (     296 calls)
     ffts         :      0.06s CPU      0.06s WALL (      41 calls)
     fftw         :     36.27s CPU     47.89s WALL (  102844 calls)
     interpolate  :      0.06s CPU      0.08s WALL (      21 calls)

     Parallel routines
     fft_scatt_xy :      2.37s CPU      3.17s WALL (  103181 calls)
     fft_scatt_yz :     27.09s CPU     35.40s WALL (  103181 calls)

     PWSCF        :   2m34.25s CPU   3m15.61s WALL


   This run was terminated on:  13:51:10   1Jul2026            

=------------------------------------------------------------------------------=
   JOB DONE.
=------------------------------------------------------------------------------=
