
     Program PWSCF v.6.7MaX starts on  2Jul2026 at  2:51: 9 

     This program is part of the open-source Quantum ESPRESSO suite
     for quantum simulation of materials; please cite
         "P. Giannozzi et al., J. Phys.:Condens. Matter 21 395502 (2009);
         "P. Giannozzi et al., J. Phys.:Condens. Matter 29 465901 (2017);
          URL http://www.quantum-espresso.org", 
     in publications or presentations arising from this work. More details at
     http://www.quantum-espresso.org/quote

     Parallel version (MPI), running on     4 processors

     MPI processes distributed on     1 nodes
     K-points division:     npool     =       2
     R & G space division:  proc/nbgrp/npool/nimage =       2
     Waiting for input...
     Reading input from standard input
Warning: card &CELL ignored
Warning: card / ignored

     Current dimensions of program PWSCF are:
     Max number of different atomic species (ntypx) = 10
     Max number of k-points (npk) =  40000
     Max angular momentum in pseudopotentials (lmaxx) =  3
     file Ca.pbe-spn-kjpaw_psl.1.0.0.UPF: wavefunction(s)  3S renormalized
     file O.pbe-n-kjpaw_psl.0.1.UPF: wavefunction(s)  2P renormalized

     Subspace diagonalization in iterative solution of the eigenvalue problem:
     a serial algorithm will be used


     Parallelization info
     --------------------
     sticks:   dense  smooth     PW     G-vecs:    dense   smooth      PW
     Min         635     318     99                24447     8645    1526
     Max         638     319    100                24448     8650    1529
     Sum        1273     637    199                48895    17295    3055



     bravais-lattice index     =            0
     lattice parameter (alat)  =       6.7798  a.u.
     unit-cell volume          =     361.6405 (a.u.)^3
     number of atoms/cell      =            5
     number of atomic types    =            3
     number of electrons       =        24.00
     number of Kohn-Sham states=           12
     kinetic-energy cutoff     =      50.0000  Ry
     charge density cutoff     =     400.0000  Ry
     scf convergence threshold =      1.0E-14
     mixing beta               =       0.3000
     number of iterations used =            8  plain     mixing
     Exchange-correlation= SLA  PW   PBX  PBC
                           (   1   4   3   4   0   0   0)

     celldm(1)=   6.779801  celldm(2)=   0.000000  celldm(3)=   0.000000
     celldm(4)=   0.000000  celldm(5)=   0.000000  celldm(6)=   0.000000

     crystal axes: (cart. coord. in units of alat)
               a(1) = (   0.500014   0.864805  -0.045805 )  
               a(2) = (  -0.500014   0.864805  -0.045805 )  
               a(3) = (  -0.000000   0.103464   1.336345 )  

     reciprocal axes: (cart. coord. in units 2 pi/alat)
               b(1) = (  0.999972  0.575804 -0.044581 )  
               b(2) = ( -0.999972  0.575804 -0.044581 )  
               b(3) = (  0.000000  0.039473  0.745254 )  


     PseudoPot. # 1 for Ca read from file:
     /data/pseudopotentials/Ca.pbe-spn-kjpaw_psl.1.0.0.UPF
     MD5 check sum: 1e11ab70c77b02a7d7d676f41d47b751
     Pseudo is Projector augmented-wave + core cor, Zval = 10.0
     Generated using &quot;atomic&quot; code by A. Dal Corso  v.6.4.1
     Shape of augmentation charge: PSQ
     Using radial grid of 1169 points,  6 beta functions with: 
                l(1) =   0
                l(2) =   0
                l(3) =   1
                l(4) =   1
                l(5) =   2
                l(6) =   2
     Q(r) pseudized with 0 coefficients 


     PseudoPot. # 2 for H  read from file:
     /data/pseudopotentials/h_pbe_v1.4.uspp.F.UPF
     MD5 check sum: 761ae9a214b05c3daf00ab9f6b793d6f
     Pseudo is Ultrasoft, Zval =  1.0
     Generated by new atomic code, or converted to UPF format
     Using radial grid of  615 points,  2 beta functions with: 
                l(1) =   0
                l(2) =   0
     Q(r) pseudized with  8 coefficients,  rinner =    0.700

     PseudoPot. # 3 for O  read from file:
     /data/pseudopotentials/O.pbe-n-kjpaw_psl.0.1.UPF
     MD5 check sum: 833c495a5d0f9b75bf046115549bffff
     Pseudo is Projector augmented-wave + core cor, Zval =  6.0
     Generated using &quot;atomic&quot; code by A. Dal Corso  v.6.3
     Shape of augmentation charge: BESSEL
     Using radial grid of 1095 points,  4 beta functions with: 
                l(1) =   0
                l(2) =   0
                l(3) =   1
                l(4) =   1
     Q(r) pseudized with 0 coefficients 


     atomic species   valence    mass     pseudopotential
        Ca            10.00    40.07800     Ca( 1.00)
        H              1.00     1.00800     H ( 1.00)
        O              6.00    15.99900     O ( 1.00)

     No symmetry found



   Cartesian axes

     site n.     atom                  positions (alat units)
         1           Ca  tau(   1) = (  -0.4142703   0.8648051  -0.0458051  )
         2           H   tau(   2) = (   0.0943492   1.2215535   0.6867368  )
         3           H   tau(   3) = (   0.0943492   0.6115209   0.5579975  )
         4           O   tau(   4) = (   0.0858317   1.2402749   0.9551872  )
         5           O   tau(   5) = (   0.0858317   0.5927995   0.2895471  )

     number of k points=   112

     Number of k-points >= 100: set verbosity='high' to print them.

     Dense  grid:    48895 G-vectors     FFT dimensions: (  45,  45,  60)

     Smooth grid:    17295 G-vectors     FFT dimensions: (  32,  32,  45)

     Estimated max dynamical RAM per process >      69.99 MB

     Estimated total dynamical RAM >     279.97 MB

     Check: negative core charge=   -0.000003

     Initial potential from superposition of free atoms

     starting charge   23.99512, renormalised to   24.00000
     Starting wfcs are   18 randomized atomic wfcs
     Checking if some PAW data can be deallocated... 

     total cpu time spent up to now is       12.4 secs

     Self-consistent Calculation

     iteration #  1     ecut=    50.00 Ry     beta= 0.30
     Davidson diagonalization with overlap
     ethr =  1.00E-02,  avg # of iterations =  2.0

     total cpu time spent up to now is       24.5 secs

     total energy              =    -219.35707083 Ry
     estimated scf accuracy    <       1.08619320 Ry

     iteration #  2     ecut=    50.00 Ry     beta= 0.30
     Davidson diagonalization with overlap
     ethr =  4.53E-03,  avg # of iterations =  2.0

     total cpu time spent up to now is       37.9 secs

     total energy              =    -219.52117166 Ry
     estimated scf accuracy    <       0.08630783 Ry

     iteration #  3     ecut=    50.00 Ry     beta= 0.30
     Davidson diagonalization with overlap
     ethr =  3.60E-04,  avg # of iterations =  6.2

     total cpu time spent up to now is       58.4 secs

     total energy              =    -219.57212588 Ry
     estimated scf accuracy    <       0.04723519 Ry

     iteration #  4     ecut=    50.00 Ry     beta= 0.30
     Davidson diagonalization with overlap
     ethr =  1.97E-04,  avg # of iterations =  3.8

     total cpu time spent up to now is       75.3 secs

     total energy              =    -219.58604166 Ry
     estimated scf accuracy    <       0.01669764 Ry

     iteration #  5     ecut=    50.00 Ry     beta= 0.30
     Davidson diagonalization with overlap
     ethr =  6.96E-05,  avg # of iterations =  1.8

     total cpu time spent up to now is       85.8 secs

     total energy              =    -219.58371216 Ry
     estimated scf accuracy    <       0.00541476 Ry

     iteration #  6     ecut=    50.00 Ry     beta= 0.30
     Davidson diagonalization with overlap
     ethr =  2.26E-05,  avg # of iterations =  4.5

     total cpu time spent up to now is      105.2 secs

     total energy              =    -219.58606045 Ry
     estimated scf accuracy    <       0.00041760 Ry

     iteration #  7     ecut=    50.00 Ry     beta= 0.30
     Davidson diagonalization with overlap
     ethr =  1.74E-06,  avg # of iterations =  5.3

     total cpu time spent up to now is      123.4 secs

     total energy              =    -219.58625744 Ry
     estimated scf accuracy    <       0.00012828 Ry

     iteration #  8     ecut=    50.00 Ry     beta= 0.30
     Davidson diagonalization with overlap
     ethr =  5.35E-07,  avg # of iterations =  2.9

     total cpu time spent up to now is      137.5 secs

     total energy              =    -219.58626649 Ry
     estimated scf accuracy    <       0.00002646 Ry

     iteration #  9     ecut=    50.00 Ry     beta= 0.30
     Davidson diagonalization with overlap
     ethr =  1.10E-07,  avg # of iterations =  5.9

     total cpu time spent up to now is      153.3 secs

     total energy              =    -219.58628571 Ry
     estimated scf accuracy    <       0.00001358 Ry

     iteration # 10     ecut=    50.00 Ry     beta= 0.30
     Davidson diagonalization with overlap
     ethr =  5.66E-08,  avg # of iterations =  2.1

     total cpu time spent up to now is      164.5 secs

     total energy              =    -219.58628539 Ry
     estimated scf accuracy    <       0.00000228 Ry

     iteration # 11     ecut=    50.00 Ry     beta= 0.30
     Davidson diagonalization with overlap
     ethr =  9.52E-09,  avg # of iterations =  6.6

     total cpu time spent up to now is      184.0 secs

     total energy              =    -219.58628694 Ry
     estimated scf accuracy    <       0.00001042 Ry

     iteration # 12     ecut=    50.00 Ry     beta= 0.30
     Davidson diagonalization with overlap
     ethr =  9.52E-09,  avg # of iterations =  4.3

     total cpu time spent up to now is      199.6 secs

     total energy              =    -219.58628791 Ry
     estimated scf accuracy    <       0.00000072 Ry

     iteration # 13     ecut=    50.00 Ry     beta= 0.30
     Davidson diagonalization with overlap
     ethr =  2.99E-09,  avg # of iterations =  4.7

     total cpu time spent up to now is      216.0 secs

     total energy              =    -219.58628822 Ry
     estimated scf accuracy    <          1.2E-09 Ry

     iteration # 14     ecut=    50.00 Ry     beta= 0.30
     Davidson diagonalization with overlap
     c_bands:  1 eigenvalues not converged
     ethr =  5.11E-12,  avg # of iterations = 16.5

     total cpu time spent up to now is      266.7 secs

     total energy              =    -219.58628824 Ry
     estimated scf accuracy    <       0.00000027 Ry

     iteration # 15     ecut=    50.00 Ry     beta= 0.30
     Davidson diagonalization with overlap
     ethr =  5.11E-12,  avg # of iterations = 11.0

     total cpu time spent up to now is      300.3 secs

     total energy              =    -219.58628825 Ry
     estimated scf accuracy    <       0.00000003 Ry

     iteration # 16     ecut=    50.00 Ry     beta= 0.30
     Davidson diagonalization with overlap
     ethr =  5.11E-12,  avg # of iterations =  8.1

     total cpu time spent up to now is      325.5 secs

     total energy              =    -219.58628825 Ry
     estimated scf accuracy    <          9.2E-11 Ry

     iteration # 17     ecut=    50.00 Ry     beta= 0.30
     Davidson diagonalization with overlap
     ethr =  3.84E-13,  avg # of iterations =  6.6

     total cpu time spent up to now is      345.5 secs

     total energy              =    -219.58628825 Ry
     estimated scf accuracy    <          5.0E-10 Ry

     iteration # 18     ecut=    50.00 Ry     beta= 0.30
     Davidson diagonalization with overlap
     ethr =  3.84E-13,  avg # of iterations =  4.5

     total cpu time spent up to now is      359.7 secs

     total energy              =    -219.58628825 Ry
     estimated scf accuracy    <          7.4E-11 Ry

     iteration # 19     ecut=    50.00 Ry     beta= 0.30
     Davidson diagonalization with overlap
     ethr =  3.08E-13,  avg # of iterations =  3.6

     total cpu time spent up to now is      374.3 secs

     total energy              =    -219.58628825 Ry
     estimated scf accuracy    <          1.2E-12 Ry

     iteration # 20     ecut=    50.00 Ry     beta= 0.30
     Davidson diagonalization with overlap
     ethr =  1.00E-13,  avg # of iterations =  3.3

     total cpu time spent up to now is      387.8 secs

     total energy              =    -219.58628825 Ry
     estimated scf accuracy    <          4.0E-13 Ry

     iteration # 21     ecut=    50.00 Ry     beta= 0.30
     Davidson diagonalization with overlap
     ethr =  1.00E-13,  avg # of iterations =  1.0

     total cpu time spent up to now is      398.1 secs

     total energy              =    -219.58628825 Ry
     estimated scf accuracy    <          1.3E-13 Ry

     iteration # 22     ecut=    50.00 Ry     beta= 0.30
     Davidson diagonalization with overlap
     ethr =  1.00E-13,  avg # of iterations =  1.0

     total cpu time spent up to now is      409.1 secs

     total energy              =    -219.58628825 Ry
     estimated scf accuracy    <          8.2E-14 Ry

     iteration # 23     ecut=    50.00 Ry     beta= 0.30
     Davidson diagonalization with overlap
     ethr =  1.00E-13,  avg # of iterations =  1.0

     total cpu time spent up to now is      418.7 secs

     End of self-consistent calculation

     Number of k-points >= 100: set verbosity='high' to print the bands.

     highest occupied level (ev):     3.1645

!    total energy              =    -219.58628825 Ry
     estimated scf accuracy    <          9.5E-15 Ry

     The total energy is the sum of the following terms:
     one-electron contribution =     -59.58189647 Ry
     hartree contribution      =      40.49748416 Ry
     xc contribution           =     -28.67957418 Ry
     ewald contribution        =     -92.81782823 Ry
     one-center paw contrib.   =     -79.00447352 Ry

     convergence has been achieved in  23 iterations

     Forces acting on atoms (cartesian axes, Ry/au):

     atom    1 type  1   force =     0.00081060   -0.00000001   -0.00000000
     atom    2 type  2   force =     0.00039188   -0.00194574   -0.02378026
     atom    3 type  2   force =     0.00039189    0.00194575    0.02378025
     atom    4 type  3   force =    -0.00079718    0.00141032    0.02528870
     atom    5 type  3   force =    -0.00079719   -0.00141033   -0.02528869

     Total force =     0.049232     Total SCF correction =     0.000000


     Computing stress (Cartesian axis) and pressure

          total   stress  (Ry/bohr**3)                   (kbar)     P=       25.80
   0.00009163  -0.00000000  -0.00000000           13.48       -0.00       -0.00
  -0.00000000   0.00009866   0.00000650           -0.00       14.51        0.96
  -0.00000000   0.00000650   0.00033596           -0.00        0.96       49.42


     Writing output data file ./out/H2CaO2.save/

     init_run     :      7.69s CPU     11.36s WALL (       1 calls)
     electrons    :    247.00s CPU    406.30s WALL (       1 calls)
     forces       :      2.31s CPU      4.53s WALL (       1 calls)
     stress       :      5.23s CPU      9.00s WALL (       1 calls)

     Called by init_run:
     wfcinit      :      2.76s CPU      4.55s WALL (       1 calls)
     potinit      :      1.24s CPU      1.92s WALL (       1 calls)
     hinit0       :      2.09s CPU      2.98s WALL (       1 calls)

     Called by electrons:
     c_bands      :    212.58s CPU    348.50s WALL (      23 calls)
     sum_band     :     21.30s CPU     36.40s WALL (      23 calls)
     v_of_rho     :      1.77s CPU      2.95s WALL (      24 calls)
     newd         :      3.25s CPU      4.91s WALL (      24 calls)
     PAW_pot      :      7.94s CPU     13.10s WALL (      24 calls)
     mix_rho      :      0.39s CPU      0.69s WALL (      23 calls)

     Called by c_bands:
     init_us_2    :      2.37s CPU      3.36s WALL (    2744 calls)
     cegterg      :    174.94s CPU    290.66s WALL (    1288 calls)

     Called by *egterg:
     cdiaghg      :      4.50s CPU      7.46s WALL (    7409 calls)
     h_psi        :    112.24s CPU    190.47s WALL (    7465 calls)
     s_psi        :      9.56s CPU     16.04s WALL (    7465 calls)
     g_psi        :      0.48s CPU      0.72s WALL (    6121 calls)

     Called by h_psi:
     h_psi:calbec :     17.16s CPU     29.22s WALL (    7465 calls)
     vloc_psi     :     84.44s CPU    144.65s WALL (    7465 calls)
     add_vuspsi   :     10.08s CPU     15.78s WALL (    7465 calls)

     General routines
     calbec       :     22.02s CPU     38.01s WALL (    9033 calls)
     fft          :      1.68s CPU      2.56s WALL (     335 calls)
     ffts         :      0.07s CPU      0.13s WALL (      47 calls)
     fftw         :     82.96s CPU    143.41s WALL (  131324 calls)
     interpolate  :      0.14s CPU      0.22s WALL (      24 calls)

     Parallel routines
     fft_scatt_xy :      7.77s CPU     12.26s WALL (  131706 calls)
     fft_scatt_yz :     51.79s CPU     92.70s WALL (  131706 calls)

     PWSCF        :   4m22.89s CPU   7m12.89s WALL


   This run was terminated on:   2:58:22   2Jul2026            

=------------------------------------------------------------------------------=
   JOB DONE.
=------------------------------------------------------------------------------=
