
     Program PWSCF v.6.7MaX starts on  1Jul2026 at  3:35:42 

     This program is part of the open-source Quantum ESPRESSO suite
     for quantum simulation of materials; please cite
         "P. Giannozzi et al., J. Phys.:Condens. Matter 21 395502 (2009);
         "P. Giannozzi et al., J. Phys.:Condens. Matter 29 465901 (2017);
          URL http://www.quantum-espresso.org", 
     in publications or presentations arising from this work. More details at
     http://www.quantum-espresso.org/quote

     Parallel version (MPI), running on     8 processors

     MPI processes distributed on     1 nodes
     K-points division:     npool     =       2
     R & G space division:  proc/nbgrp/npool/nimage =       4
     Waiting for input...
     Reading input from standard input

     Current dimensions of program PWSCF are:
     Max number of different atomic species (ntypx) = 10
     Max number of k-points (npk) =  40000
     Max angular momentum in pseudopotentials (lmaxx) =  3
     file Ba.pbe-spn-kjpaw_psl.1.0.0.UPF: wavefunction(s)  5S 6S renormalized
     file O.pbe-n-kjpaw_psl.0.1.UPF: wavefunction(s)  2P renormalized

     Subspace diagonalization in iterative solution of the eigenvalue problem:
     one sub-group per band group will be used
     scalapack distributed-memory algorithm (size of sub-group:  2*  2 procs)

     Message from routine setup:
     using ibrav=0 with symmetry is DISCOURAGED, use correct ibrav instead

     Parallelization info
     --------------------
     sticks:   dense  smooth     PW     G-vecs:    dense   smooth      PW
     Min        1117     559    149                79854    28233    3949
     Max        1118     560    151                79855    28238    3950
     Sum        4471    2239    599               319417   112945   15797



     bravais-lattice index     =            0
     lattice parameter (alat)  =      10.3350  a.u.
     unit-cell volume          =    2364.8313 (a.u.)^3
     number of atoms/cell      =           24
     number of atomic types    =            3
     number of electrons       =       160.00
     number of Kohn-Sham states=           96
     kinetic-energy cutoff     =      50.0000  Ry
     charge density cutoff     =     400.0000  Ry
     scf convergence threshold =      1.0E-08
     mixing beta               =       0.3000
     number of iterations used =            8  plain     mixing
     energy convergence thresh.=      1.0E-05
     force convergence thresh. =      1.0E-04
     press convergence thresh. =      5.0E-01
     Exchange-correlation= SLA  PW   PBX  PBC
                           (   1   4   3   4   0   0   0)
     nstep                     =           50


     celldm(1)=  10.334972  celldm(2)=   0.000000  celldm(3)=   0.000000
     celldm(4)=   0.000000  celldm(5)=   0.000000  celldm(6)=   0.000000

     crystal axes: (cart. coord. in units of alat)
               a(1) = (   1.000000   0.000000   0.000000 )  
               a(2) = (  -0.000000   1.314356   0.000000 )  
               a(3) = (   0.000000   0.000000   1.629893 )  

     reciprocal axes: (cart. coord. in units 2 pi/alat)
               b(1) = (  1.000000  0.000000 -0.000000 )  
               b(2) = (  0.000000  0.760829  0.000000 )  
               b(3) = (  0.000000 -0.000000  0.613537 )  


     PseudoPot. # 1 for Ba read from file:
     /data/pseudopotentials/Ba.pbe-spn-kjpaw_psl.1.0.0.UPF
     MD5 check sum: 7cfe25f1fe7574a4710541d5a11d6531
     Pseudo is Projector augmented-wave + core cor, Zval = 10.0
     Generated using &quot;atomic&quot; code by A. Dal Corso  v.6.2.2
     Shape of augmentation charge: PSQ
     Using radial grid of 1251 points,  7 beta functions with: 
                l(1) =   0
                l(2) =   0
                l(3) =   0
                l(4) =   1
                l(5) =   1
                l(6) =   2
                l(7) =   2
     Q(r) pseudized with 0 coefficients 


     PseudoPot. # 2 for S  read from file:
     /data/pseudopotentials/s_pbe_v1.4.uspp.F.UPF
     MD5 check sum: 88d86576ff6df21479756cfb9bdac1df
     Pseudo is Ultrasoft + core correction, Zval =  6.0
     Generated by new atomic code, or converted to UPF format
     Using radial grid of  907 points,  6 beta functions with: 
                l(1) =   0
                l(2) =   0
                l(3) =   1
                l(4) =   1
                l(5) =   2
                l(6) =   2
     Q(r) pseudized with  8 coefficients,  rinner =    1.300   1.300   1.300
                                                       1.300   1.300

     PseudoPot. # 3 for O  read from file:
     /data/pseudopotentials/O.pbe-n-kjpaw_psl.0.1.UPF
     MD5 check sum: 833c495a5d0f9b75bf046115549bffff
     Pseudo is Projector augmented-wave + core cor, Zval =  6.0
     Generated using &quot;atomic&quot; code by A. Dal Corso  v.6.3
     Shape of augmentation charge: BESSEL
     Using radial grid of 1095 points,  4 beta functions with: 
                l(1) =   0
                l(2) =   0
                l(3) =   1
                l(4) =   1
     Q(r) pseudized with 0 coefficients 


     atomic species   valence    mass     pseudopotential
        Ba            10.00   137.32700     Ba( 1.00)
        S              6.00    32.06000     S ( 1.00)
        O              6.00    15.99900     O ( 1.00)

      8 Sym. Ops., with inversion, found ( 6 have fractional translation)



   Cartesian axes

     site n.     atom                  positions (alat units)
         1           Ba  tau(   1) = (   0.2500000   1.1083155   1.1166492  )
         2           Ba  tau(   2) = (   0.7500000   0.2060404   0.5132443  )
         3           Ba  tau(   3) = (   0.7500000   0.4511376   1.3281910  )
         4           Ba  tau(   4) = (   0.2500000   0.8632183   0.3017025  )
         5           S   tau(   5) = (   0.2500000   0.4065105   0.9158743  )
         6           S   tau(   6) = (   0.7500000   0.9078454   0.7140192  )
         7           S   tau(   7) = (   0.7500000   1.0636884   1.5289660  )
         8           S   tau(   8) = (   0.2500000   0.2506675   0.1009275  )
         9           O   tau(   9) = (   0.5302340   1.0655232   0.6843195  )
        10           O   tau(  10) = (   0.0302340   0.2488327   0.9455740  )
        11           O   tau(  11) = (   0.4697660   0.4083452   0.1306272  )
        12           O   tau(  12) = (   0.9697660   0.9060106   1.4992663  )
        13           O   tau(  13) = (   0.4697660   0.2488327   0.9455740  )
        14           O   tau(  14) = (   0.9697660   1.0655232   0.6843195  )
        15           O   tau(  15) = (   0.5302340   0.9060106   1.4992663  )
        16           O   tau(  16) = (   0.0302340   0.4083452   0.1306272  )
        17           O   tau(  17) = (   0.2500000   0.5142924   0.6709027  )
        18           O   tau(  18) = (   0.7500000   0.8000634   0.9589908  )
        19           O   tau(  19) = (   0.7500000   1.1714704   0.1440441  )
        20           O   tau(  20) = (   0.2500000   0.1428855   1.4858494  )
        21           O   tau(  21) = (   0.2500000   0.0644397   0.2958965  )
        22           O   tau(  22) = (   0.7500000   1.2499162   1.3339970  )
        23           O   tau(  23) = (   0.7500000   0.7216176   0.5190502  )
        24           O   tau(  24) = (   0.2500000   0.5927383   1.1108433  )

     number of k points=     8  Gaussian smearing, width (Ry)=  0.0050
                       cart. coord. in units 2pi/alat
        k(    1) = (   0.0000000   0.0000000   0.0000000), wk =   0.0740741
        k(    2) = (   0.0000000   0.0000000   0.2045123), wk =   0.1481481
        k(    3) = (   0.0000000   0.2536096   0.0000000), wk =   0.1481481
        k(    4) = (   0.0000000   0.2536096   0.2045123), wk =   0.2962963
        k(    5) = (   0.3333333   0.0000000   0.0000000), wk =   0.1481481
        k(    6) = (   0.3333333   0.0000000   0.2045123), wk =   0.2962963
        k(    7) = (   0.3333333   0.2536096   0.0000000), wk =   0.2962963
        k(    8) = (   0.3333333   0.2536096   0.2045123), wk =   0.5925926

     Dense  grid:   319417 G-vectors     FFT dimensions: (  72,  90, 108)

     Smooth grid:   112945 G-vectors     FFT dimensions: (  48,  64,  80)

     Estimated max dynamical RAM per process >     256.85 MB

     Estimated total dynamical RAM >       2.01 GB

     Check: negative core charge=   -0.000002

     Initial potential from superposition of free atoms

     starting charge  159.93181, renormalised to  160.00000
     Starting wfcs are  100 randomized atomic wfcs
     Checking if some PAW data can be deallocated... 

     total cpu time spent up to now is       24.3 secs

     Self-consistent Calculation

     iteration #  1     ecut=    50.00 Ry     beta= 0.30
     Davidson diagonalization with overlap
     ethr =  1.00E-02,  avg # of iterations =  8.9

     total cpu time spent up to now is       67.7 secs

     total energy              =   -2508.47745492 Ry
     estimated scf accuracy    <       5.47735641 Ry

     iteration #  2     ecut=    50.00 Ry     beta= 0.30
     Davidson diagonalization with overlap
     ethr =  3.42E-03,  avg # of iterations =  2.0

     total cpu time spent up to now is       96.7 secs

     total energy              =   -2509.27147064 Ry
     estimated scf accuracy    <       0.34877175 Ry

     iteration #  3     ecut=    50.00 Ry     beta= 0.30
     Davidson diagonalization with overlap
     ethr =  2.18E-04,  avg # of iterations = 11.1

     total cpu time spent up to now is      140.4 secs

     total energy              =   -2509.36321414 Ry
     estimated scf accuracy    <       0.11325495 Ry

     iteration #  4     ecut=    50.00 Ry     beta= 0.30
     Davidson diagonalization with overlap
     ethr =  7.08E-05,  avg # of iterations =  4.6

     total cpu time spent up to now is      180.1 secs

     total energy              =   -2509.38540797 Ry
     estimated scf accuracy    <       0.14112162 Ry

     iteration #  5     ecut=    50.00 Ry     beta= 0.30
     Davidson diagonalization with overlap
     ethr =  7.08E-05,  avg # of iterations =  2.0

     total cpu time spent up to now is      206.4 secs

     total energy              =   -2509.37971590 Ry
     estimated scf accuracy    <       0.03060991 Ry

     iteration #  6     ecut=    50.00 Ry     beta= 0.30
     Davidson diagonalization with overlap
     ethr =  1.91E-05,  avg # of iterations = 11.2

     total cpu time spent up to now is      246.0 secs

     total energy              =   -2509.39057811 Ry
     estimated scf accuracy    <       0.00134779 Ry

     iteration #  7     ecut=    50.00 Ry     beta= 0.30
     Davidson diagonalization with overlap
     c_bands:  1 eigenvalues not converged
     ethr =  8.42E-07,  avg # of iterations = 10.2

     total cpu time spent up to now is      282.0 secs

     total energy              =   -2509.39071760 Ry
     estimated scf accuracy    <       0.00047448 Ry

     iteration #  8     ecut=    50.00 Ry     beta= 0.30
     Davidson diagonalization with overlap
     ethr =  2.97E-07,  avg # of iterations =  4.1

     total cpu time spent up to now is      324.9 secs

     total energy              =   -2509.39016530 Ry
     estimated scf accuracy    <       0.00358211 Ry

     iteration #  9     ecut=    50.00 Ry     beta= 0.30
     Davidson diagonalization with overlap
     ethr =  2.97E-07,  avg # of iterations =  3.1

     total cpu time spent up to now is      362.6 secs

     total energy              =   -2509.39073498 Ry
     estimated scf accuracy    <       0.00005030 Ry

     iteration # 10     ecut=    50.00 Ry     beta= 0.30
     Davidson diagonalization with overlap
     ethr =  3.14E-08,  avg # of iterations =  4.0

     total cpu time spent up to now is      401.0 secs

     total energy              =   -2509.39075718 Ry
     estimated scf accuracy    <       0.00001125 Ry

     iteration # 11     ecut=    50.00 Ry     beta= 0.30
     Davidson diagonalization with overlap
     ethr =  7.03E-09,  avg # of iterations =  3.0

     total cpu time spent up to now is      439.4 secs

     total energy              =   -2509.39075724 Ry
     estimated scf accuracy    <       0.00004912 Ry

     iteration # 12     ecut=    50.00 Ry     beta= 0.30
     Davidson diagonalization with overlap
     ethr =  7.03E-09,  avg # of iterations =  2.0

     total cpu time spent up to now is      467.7 secs

     total energy              =   -2509.39074915 Ry
     estimated scf accuracy    <       0.00001994 Ry

     iteration # 13     ecut=    50.00 Ry     beta= 0.30
     Davidson diagonalization with overlap
     ethr =  7.03E-09,  avg # of iterations =  3.0

     total cpu time spent up to now is      500.7 secs

     total energy              =   -2509.39075408 Ry
     estimated scf accuracy    <       0.00000072 Ry

     iteration # 14     ecut=    50.00 Ry     beta= 0.30
     Davidson diagonalization with overlap
     ethr =  4.52E-10,  avg # of iterations =  4.0

     total cpu time spent up to now is      529.9 secs

     total energy              =   -2509.39075417 Ry
     estimated scf accuracy    <       0.00000090 Ry

     iteration # 15     ecut=    50.00 Ry     beta= 0.30
     Davidson diagonalization with overlap
     ethr =  4.52E-10,  avg # of iterations =  2.0

     total cpu time spent up to now is      559.7 secs

     total energy              =   -2509.39075398 Ry
     estimated scf accuracy    <       0.00000508 Ry

     iteration # 16     ecut=    50.00 Ry     beta= 0.30
     Davidson diagonalization with overlap
     ethr =  4.52E-10,  avg # of iterations =  2.0

     total cpu time spent up to now is      590.9 secs

     total energy              =   -2509.39075423 Ry
     estimated scf accuracy    <       0.00000196 Ry

     iteration # 17     ecut=    50.00 Ry     beta= 0.30
     Davidson diagonalization with overlap
     ethr =  4.52E-10,  avg # of iterations =  2.0

     total cpu time spent up to now is      617.0 secs

     total energy              =   -2509.39075423 Ry
     estimated scf accuracy    <       0.00000021 Ry

     iteration # 18     ecut=    50.00 Ry     beta= 0.30
     Davidson diagonalization with overlap
     ethr =  1.31E-10,  avg # of iterations =  1.0

     total cpu time spent up to now is      638.9 secs

     total energy              =   -2509.39075421 Ry
     estimated scf accuracy    <       0.00000005 Ry

     iteration # 19     ecut=    50.00 Ry     beta= 0.30
     Davidson diagonalization with overlap
     ethr =  3.17E-11,  avg # of iterations =  2.0

     total cpu time spent up to now is      670.5 secs

     End of self-consistent calculation

          k = 0.0000 0.0000 0.0000 ( 14081 PWs)   bands (ev):

   -19.1261 -19.0447 -19.0281 -19.0185 -17.2221 -17.1624 -17.1536 -17.1376
   -13.0014 -12.9770 -12.9661 -12.9130 -12.9044 -12.8790 -12.8773 -12.8399
   -12.8376 -12.8308 -12.8266 -12.8175  -4.7870  -4.5540  -4.4527  -4.4081
    -4.3795  -4.3568  -4.3287  -4.2646  -4.2317  -4.1996  -4.1948  -4.1830
    -2.8160  -2.3227  -2.2257  -1.7722  -0.4143  -0.3220  -0.2114  -0.1935
    -0.0476   0.0096   0.0566   0.1572   0.1910   0.2528   0.2812   0.3748
     2.5094   2.5902   2.6144   2.6753   2.7690   2.7930   2.8997   2.9565
     2.9759   3.0409   3.0709   3.2811   3.3303   3.3544   3.5910   3.6358
     3.7819   3.8968   3.9812   4.0637   4.6958   5.0652   5.1801   5.1844
     5.2466   5.3177   5.3864   5.4174   5.4189   5.4655   5.4784   5.5209
    11.8558  12.2905  12.4709  12.6977  12.7729  12.7932  13.1636  13.1734
    13.2349  13.2397  13.3497  13.5394  13.5547  13.8146  14.0111  14.0830

          k = 0.0000 0.0000 0.2045 ( 14156 PWs)   bands (ev):

   -19.1079 -19.0684 -19.0241 -19.0181 -17.2060 -17.1754 -17.1510 -17.1422
   -12.9892 -12.9716 -12.9568 -12.9085 -12.9050 -12.8937 -12.8881 -12.8650
   -12.8372 -12.8325 -12.8129 -12.8110  -4.7010  -4.4985  -4.4844  -4.4098
    -4.3807  -4.3653  -4.3384  -4.2929  -4.2772  -4.2440  -4.2199  -4.2089
    -2.5233  -2.3147  -2.2625  -2.0133  -0.2927  -0.2817  -0.2294  -0.1694
    -0.1189   0.0200   0.0418   0.1033   0.2212   0.2651   0.2671   0.3012
     2.5995   2.6106   2.6274   2.7396   2.8295   2.8632   2.8808   2.9229
     3.0284   3.0398   3.1701   3.2641   3.2971   3.3105   3.4604   3.6299
     3.7245   3.8855   3.8961   4.0149   4.8352   5.1062   5.1118   5.1997
     5.2088   5.2917   5.3140   5.3945   5.4627   5.4823   5.5064   5.5103
    12.2034  12.4119  12.4813  12.6006  12.8022  12.8959  12.9720  12.9973
    13.0342  13.0616  13.3687  13.4633  13.6872  13.6960  14.1274  14.1350

          k = 0.0000 0.2536 0.0000 ( 14140 PWs)   bands (ev):

   -19.1005 -19.0527 -19.0352 -19.0206 -17.2212 -17.1895 -17.1533 -17.1381
   -13.0048 -13.0015 -12.9064 -12.9011 -12.8822 -12.8794 -12.8738 -12.8429
   -12.8377 -12.8365 -12.8277 -12.8271  -4.7562  -4.6060  -4.5224  -4.4699
    -4.3894  -4.3643  -4.3489  -4.3308  -4.3132  -4.2356  -4.2260  -4.2027
    -2.4272  -2.1854  -2.1676  -1.8863  -0.3316  -0.2774  -0.1726  -0.0916
    -0.0870  -0.0333   0.0608   0.1161   0.1370   0.2094   0.2447   0.3586
     2.5541   2.5693   2.5976   2.6542   2.7780   2.8734   2.9707   2.9902
     3.0557   3.0719   3.1395   3.2490   3.2540   3.2942   3.5475   3.6227
     3.6568   3.8257   3.8615   4.0069   4.7348   5.0056   5.1527   5.2366
     5.2372   5.3580   5.4022   5.4105   5.4172   5.4406   5.4929   5.5801
    12.2380  12.2695  12.6582  12.6592  12.7916  12.9533  13.0873  13.1003
    13.4387  13.5293  13.5566  13.6243  13.6992  13.7632  13.9397  14.0242

          k = 0.0000 0.2536 0.2045 ( 14128 PWs)   bands (ev):

   -19.0859 -19.0566 -19.0405 -19.0270 -17.2126 -17.1968 -17.1496 -17.1421
   -12.9903 -12.9854 -12.9144 -12.8993 -12.8956 -12.8858 -12.8707 -12.8562
   -12.8426 -12.8390 -12.8244 -12.8189  -4.6950  -4.5732  -4.5435  -4.5152
    -4.3917  -4.3518  -4.3495  -4.3129  -4.3002  -4.2678  -4.2406  -4.2397
    -2.2964  -2.1988  -2.1791  -2.0214  -0.2377  -0.1962  -0.1528  -0.1128
    -0.1104  -0.0259   0.0719   0.1251   0.1349   0.1537   0.2125   0.2802
     2.6101   2.6169   2.6581   2.7412   2.7913   2.8687   2.9055   2.9858
     3.0324   3.0755   3.1087   3.2364   3.2775   3.3011   3.4541   3.5355
     3.6959   3.8186   3.9000   3.9731   4.8196   4.9622   5.1837   5.2532
     5.2742   5.2930   5.3736   5.3748   5.4052   5.4157   5.5366   5.5712
    12.2996  12.3836  12.7254  12.7834  12.8931  12.9971  13.0328  13.0365
    13.2749  13.3110  13.5382  13.5981  13.7366  13.8526  13.9519  13.9790

          k = 0.3333 0.0000 0.0000 ( 14113 PWs)   bands (ev):

   -19.0853 -19.0354 -19.0352 -19.0220 -17.1925 -17.1922 -17.1865 -17.1499
   -13.0128 -12.9705 -12.9383 -12.9370 -12.9101 -12.8953 -12.8783 -12.8629
   -12.8557 -12.8356 -12.8327 -12.8179  -4.5370  -4.4727  -4.4067  -4.3580
    -4.3542  -4.3459  -4.3237  -4.3104  -4.3062  -4.2784  -4.2561  -4.2259
    -2.3788  -2.3334  -2.0835  -2.0384  -0.4465  -0.2318  -0.1615  -0.1144
    -0.0680  -0.0578   0.0844   0.0860   0.1530   0.1940   0.2295   0.2917
     2.5353   2.5440   2.5933   2.8451   2.8889   2.9055   2.9642   2.9977
     3.0617   3.0938   3.1709   3.2506   3.2964   3.3681   3.4504   3.5587
     3.5873   3.7270   3.7894   3.9010   4.8982   4.9446   5.0517   5.0706
     5.2080   5.2193   5.2338   5.2623   5.3628   5.4454   5.4751   5.4859
    12.5317  12.6052  12.8103  12.9592  13.0153  13.0648  13.1185  13.1712
    13.1886  13.3288  13.3567  13.4532  13.5966  13.7699  13.7891  14.0008

          k = 0.3333 0.0000 0.2045 ( 14107 PWs)   bands (ev):

   -19.0737 -19.0492 -19.0313 -19.0240 -17.1917 -17.1908 -17.1788 -17.1597
   -12.9899 -12.9482 -12.9471 -12.9338 -12.9238 -12.8985 -12.8981 -12.8714
   -12.8509 -12.8446 -12.8253 -12.8154  -4.5536  -4.5265  -4.4032  -4.3783
    -4.3560  -4.3487  -4.3077  -4.3045  -4.2671  -4.2608  -4.2502  -4.2141
    -2.3000  -2.2747  -2.1474  -2.1273  -0.4046  -0.2995  -0.1519  -0.1209
    -0.0658   0.0270   0.0949   0.1290   0.1362   0.1580   0.1994   0.2315
     2.5623   2.5669   2.7587   2.8703   2.9078   2.9426   2.9682   3.0256
     3.0304   3.1303   3.1662   3.2015   3.2362   3.3285   3.3441   3.3872
     3.6986   3.7756   3.7870   3.8382   4.9507   5.0120   5.0470   5.0684
     5.1818   5.1891   5.2250   5.2568   5.3407   5.3909   5.5033   5.5104
    12.5328  12.6618  12.7555  12.7675  12.8487  13.0482  13.0976  13.2227
    13.3694  13.4592  13.5729  13.6222  13.6293  13.7080  13.8440  13.9650

          k = 0.3333 0.2536 0.0000 ( 14101 PWs)   bands (ev):

   -19.0697 -19.0444 -19.0302 -19.0238 -17.2100 -17.2014 -17.1764 -17.1608
   -13.0072 -12.9894 -12.9493 -12.9379 -12.9033 -12.8774 -12.8772 -12.8678
   -12.8494 -12.8264 -12.8109 -12.8001  -4.6648  -4.6110  -4.4584  -4.3918
    -4.3484  -4.3480  -4.3212  -4.3211  -4.3043  -4.2742  -4.2428  -4.2197
    -2.2713  -2.1458  -2.0606  -1.9029  -0.3315  -0.2348  -0.2169  -0.1527
    -0.1024  -0.0539  -0.0196   0.0491   0.1740   0.2246   0.2633   0.3064
     2.5236   2.5340   2.6317   2.8166   2.9207   2.9335   2.9621   3.0236
     3.0871   3.1044   3.1613   3.1638   3.2521   3.2936   3.5205   3.5658
     3.5808   3.6346   3.7677   3.7906   4.9077   4.9204   5.0334   5.0648
     5.2194   5.2284   5.2408   5.3570   5.3767   5.4340   5.4972   5.5183
    12.6312  12.7438  12.8426  12.9655  13.0865  13.1237  13.2502  13.3249
    13.3624  13.4526  13.4584  13.6046  13.7530  13.7671  13.8792  13.8884

          k = 0.3333 0.2536 0.2045 ( 14105 PWs)   bands (ev):

   -19.0606 -19.0432 -19.0366 -19.0281 -17.2051 -17.2007 -17.1756 -17.1674
   -12.9854 -12.9696 -12.9413 -12.9319 -12.9110 -12.9033 -12.8855 -12.8833
   -12.8419 -12.8321 -12.8085 -12.8027  -4.6294  -4.5778  -4.5257  -4.4825
    -4.3490  -4.3299  -4.2986  -4.2926  -4.2737  -4.2679  -4.2519  -4.2304
    -2.1833  -2.1262  -2.0838  -1.9978  -0.3190  -0.2518  -0.1756  -0.1698
    -0.0607  -0.0190   0.0328   0.0942   0.1407   0.1823   0.2034   0.2396
     2.5507   2.5824   2.6359   2.7888   2.8741   2.8964   3.0225   3.0474
     3.0913   3.1015   3.1629   3.1830   3.2740   3.3209   3.4562   3.4629
     3.6396   3.7072   3.7410   3.7577   4.9310   4.9924   5.0244   5.0802
     5.1501   5.1869   5.2747   5.3285   5.3963   5.4423   5.4679   5.4967
    12.6814  12.7317  12.8428  12.9512  13.0170  13.0675  13.2304  13.2471
    13.3555  13.4283  13.6001  13.6451  13.6722  13.7490  13.9381  14.0164

     the Fermi energy is     5.8878 ev

!    total energy              =   -2509.39075422 Ry
     estimated scf accuracy    <          6.2E-09 Ry
     smearing contrib. (-TS)   =      -0.00000000 Ry
     internal energy E=F+TS    =   -2509.39075422 Ry

     The total energy is F=E-TS. E is the sum of the following terms:
     one-electron contribution =    -256.58238575 Ry
     hartree contribution      =     225.15953274 Ry
     xc contribution           =    -236.72964828 Ry
     ewald contribution        =    -589.18393022 Ry
     one-center paw contrib.   =   -1652.05432271 Ry

     convergence has been achieved in  19 iterations

     Forces acting on atoms (cartesian axes, Ry/au):

     atom    1 type  1   force =     0.00000000   -0.00023738    0.00032790
     atom    2 type  1   force =     0.00000000    0.00023738   -0.00032790
     atom    3 type  1   force =     0.00000000   -0.00023738   -0.00032790
     atom    4 type  1   force =     0.00000000    0.00023738    0.00032790
     atom    5 type  2   force =     0.00000000    0.00269150   -0.00077164
     atom    6 type  2   force =     0.00000000   -0.00269150    0.00077164
     atom    7 type  2   force =     0.00000000    0.00269150    0.00077164
     atom    8 type  2   force =     0.00000000   -0.00269150   -0.00077164
     atom    9 type  3   force =    -0.03187492    0.02313523   -0.00412202
     atom   10 type  3   force =    -0.03187492   -0.02313523    0.00412202
     atom   11 type  3   force =     0.03187492    0.02313523    0.00412202
     atom   12 type  3   force =     0.03187492   -0.02313523   -0.00412202
     atom   13 type  3   force =     0.03187492   -0.02313523    0.00412202
     atom   14 type  3   force =     0.03187492    0.02313523   -0.00412202
     atom   15 type  3   force =    -0.03187492   -0.02313523   -0.00412202
     atom   16 type  3   force =    -0.03187492    0.02313523    0.00412202
     atom   17 type  3   force =     0.00000000    0.01573767   -0.03643698
     atom   18 type  3   force =     0.00000000   -0.01573767    0.03643698
     atom   19 type  3   force =     0.00000000    0.01573767    0.03643698
     atom   20 type  3   force =    -0.00000000   -0.01573767   -0.03643698
     atom   21 type  3   force =     0.00000000   -0.02745581    0.02926067
     atom   22 type  3   force =     0.00000000    0.02745581   -0.02926067
     atom   23 type  3   force =    -0.00000000   -0.02745581   -0.02926067
     atom   24 type  3   force =     0.00000000    0.02745581    0.02926067

     Total force =     0.159120     Total SCF correction =     0.000301


     Computing stress (Cartesian axis) and pressure

          total   stress  (Ry/bohr**3)                   (kbar)     P=       52.79
   0.00035744   0.00000000   0.00000000           52.58        0.00        0.00
   0.00000000   0.00035178   0.00000000            0.00       51.75        0.00
   0.00000000   0.00000000   0.00036743            0.00        0.00       54.05


     BFGS Geometry Optimization
     Energy error            =      0.0E+00
     Gradient error          =      3.6E-02
     Cell gradient error     =      3.7E-04


     number of scf cycles    =   1
     number of bfgs steps    =   0

     enthalpy new            =   -2509.3907542219 Ry

     new trust radius        =       0.0893407854 bohr
     new conv_thr            =       0.0000000100 Ry

     new unit-cell volume =   2429.05692 a.u.^3 (   359.94910 Ang^3 )
     density =      4.30663 g/cm^3

CELL_PARAMETERS (angstrom)
   5.517903783   0.000000000   0.000000000
  -0.000000000   7.251471253   0.000000000
   0.000000000   0.000000000   8.995821666

ATOMIC_POSITIONS (angstrom)
Ba            1.3794759458        6.1145930927        6.1632632708
Ba            4.1384278374        1.1368781603        2.8325583950
Ba            4.1384278374        2.4888574662        7.3304692279
Ba            1.3794759458        4.7626137868        1.6653524379
S             1.3794759458        2.2442075839        5.0545449454
S             4.1384278374        5.0072636691        3.9412767204
S             4.1384278374        5.8699432104        8.4391875533
S             1.3794759458        1.3815280426        0.5566341125
O             2.9087621472        5.8909793985        3.7747426260
O             0.1498102556        1.3604918545        5.2210790397
O             2.6091416360        2.2652437720        0.7231682068
O             5.3680935276        4.9862274810        8.2726534589
O             2.6091416360        1.3604918545        5.2210790397
O             5.3680935276        5.8909793985        3.7747426260
O             2.9087621472        4.9862274810        8.2726534589
O             0.1498102556        2.2652437720        0.7231682068
O             1.3794759458        2.8458190736        3.6834341217
O             4.1384278374        4.4056521794        5.3123875441
O             4.1384278374        6.4715547001        0.8144767112
O             1.3794759458        0.7799165529        8.1813449545
O             1.3794759458        0.3408653212        1.6487589961
O             4.1384278374        6.9106059319        7.3470626697
O             4.1384278374        3.9666009477        2.8491518368
O             1.3794759458        3.2848703053        6.1466698289



     Writing output data file ./out/BaO4S.save/
     NEW-OLD atomic charge density approx. for the potential

     Check: negative core charge=   -0.000002
     extrapolated charge  164.22869, renormalised to  160.00000

     total cpu time spent up to now is      743.8 secs

     Self-consistent Calculation

     iteration #  1     ecut=    50.00 Ry     beta= 0.30
     Davidson diagonalization with overlap
     c_bands:  1 eigenvalues not converged
     ethr =  1.00E-06,  avg # of iterations = 16.9

     total cpu time spent up to now is      846.6 secs

     total energy              =   -2509.00207427 Ry
     estimated scf accuracy    <       0.46606865 Ry

     iteration #  2     ecut=    50.00 Ry     beta= 0.30
     Davidson diagonalization with overlap
     ethr =  2.91E-04,  avg # of iterations =  6.1

     total cpu time spent up to now is      886.2 secs

     total energy              =   -2509.41707077 Ry
     estimated scf accuracy    <       0.17029008 Ry

     iteration #  3     ecut=    50.00 Ry     beta= 0.30
     Davidson diagonalization with overlap
     ethr =  1.06E-04,  avg # of iterations =  5.4

     total cpu time spent up to now is      913.2 secs

     total energy              =   -2509.38717873 Ry
     estimated scf accuracy    <       0.06448026 Ry

     iteration #  4     ecut=    50.00 Ry     beta= 0.30
     Davidson diagonalization with overlap
     ethr =  4.03E-05,  avg # of iterations =  4.9

     total cpu time spent up to now is      946.1 secs

     total energy              =   -2509.40135303 Ry
     estimated scf accuracy    <       0.00122949 Ry

     iteration #  5     ecut=    50.00 Ry     beta= 0.30
     Davidson diagonalization with overlap
     ethr =  7.68E-07,  avg # of iterations = 12.5

     total cpu time spent up to now is      992.5 secs

     total energy              =   -2509.40183709 Ry
     estimated scf accuracy    <       0.00167071 Ry

     iteration #  6     ecut=    50.00 Ry     beta= 0.30
     Davidson diagonalization with overlap
     ethr =  7.68E-07,  avg # of iterations =  2.1

     total cpu time spent up to now is     1024.0 secs

     total energy              =   -2509.40116339 Ry
     estimated scf accuracy    <       0.00311358 Ry

     iteration #  7     ecut=    50.00 Ry     beta= 0.30
     Davidson diagonalization with overlap
     ethr =  7.68E-07,  avg # of iterations =  2.0

     total cpu time spent up to now is     1052.8 secs

     total energy              =   -2509.40088972 Ry
     estimated scf accuracy    <       0.00109440 Ry

     iteration #  8     ecut=    50.00 Ry     beta= 0.30
     Davidson diagonalization with overlap
     ethr =  6.84E-07,  avg # of iterations =  3.0

     total cpu time spent up to now is     1090.9 secs

     total energy              =   -2509.40118273 Ry
     estimated scf accuracy    <       0.00201448 Ry

     iteration #  9     ecut=    50.00 Ry     beta= 0.30
     Davidson diagonalization with overlap
     ethr =  6.84E-07,  avg # of iterations =  2.0

     total cpu time spent up to now is     1116.0 secs

     total energy              =   -2509.40099034 Ry
     estimated scf accuracy    <       0.00055718 Ry

     iteration # 10     ecut=    50.00 Ry     beta= 0.30
     Davidson diagonalization with overlap
     ethr =  3.48E-07,  avg # of iterations =  3.4

     total cpu time spent up to now is     1147.2 secs

     total energy              =   -2509.40120319 Ry
     estimated scf accuracy    <       0.00009493 Ry

     iteration # 11     ecut=    50.00 Ry     beta= 0.30
     Davidson diagonalization with overlap
     ethr =  5.93E-08,  avg # of iterations =  4.0

     total cpu time spent up to now is     1177.7 secs

     total energy              =   -2509.40122874 Ry
     estimated scf accuracy    <       0.00000496 Ry

     iteration # 12     ecut=    50.00 Ry     beta= 0.30
     Davidson diagonalization with overlap
     ethr =  3.10E-09,  avg # of iterations =  4.8

     total cpu time spent up to now is     1213.9 secs

     total energy              =   -2509.40122742 Ry
     estimated scf accuracy    <       0.00000789 Ry

     iteration # 13     ecut=    50.00 Ry     beta= 0.30
     Davidson diagonalization with overlap
     ethr =  3.10E-09,  avg # of iterations =  3.0

     total cpu time spent up to now is     1247.1 secs

     total energy              =   -2509.40122961 Ry
     estimated scf accuracy    <       0.00000238 Ry

     iteration # 14     ecut=    50.00 Ry     beta= 0.30
     Davidson diagonalization with overlap
     ethr =  1.48E-09,  avg # of iterations =  1.0

     total cpu time spent up to now is     1268.0 secs

     total energy              =   -2509.40122963 Ry
     estimated scf accuracy    <       0.00000096 Ry

     iteration # 15     ecut=    50.00 Ry     beta= 0.30
     Davidson diagonalization with overlap
     ethr =  6.02E-10,  avg # of iterations =  2.0

     total cpu time spent up to now is     1293.0 secs

     total energy              =   -2509.40123062 Ry
     estimated scf accuracy    <       0.00000090 Ry

     iteration # 16     ecut=    50.00 Ry     beta= 0.30
     Davidson diagonalization with overlap
     ethr =  5.64E-10,  avg # of iterations =  3.0

     total cpu time spent up to now is     1324.7 secs

     total energy              =   -2509.40122896 Ry
     estimated scf accuracy    <       0.00000445 Ry

     iteration # 17     ecut=    50.00 Ry     beta= 0.30
     Davidson diagonalization with overlap
     ethr =  5.64E-10,  avg # of iterations =  3.0

     total cpu time spent up to now is     1359.3 secs

     total energy              =   -2509.40122963 Ry
     estimated scf accuracy    <       0.00000010 Ry

     iteration # 18     ecut=    50.00 Ry     beta= 0.30
     Davidson diagonalization with overlap
     ethr =  6.44E-11,  avg # of iterations =  3.4

     total cpu time spent up to now is     1388.1 secs

     total energy              =   -2509.40122964 Ry
     estimated scf accuracy    <       0.00000002 Ry

     iteration # 19     ecut=    50.00 Ry     beta= 0.30
     Davidson diagonalization with overlap
     ethr =  1.32E-11,  avg # of iterations =  2.0

     total cpu time spent up to now is     1414.1 secs

     End of self-consistent calculation

          k = 0.0000 0.0000 0.0000 ( 14081 PWs)   bands (ev):

   -19.4393 -19.3804 -19.3660 -19.3586 -16.9985 -16.9566 -16.9402 -16.9157
   -13.0222 -12.9943 -12.9862 -12.9221 -12.9162 -12.8932 -12.8829 -12.8539
   -12.8437 -12.8413 -12.8327 -12.8324  -5.0941  -4.8529  -4.7550  -4.7170
    -4.6964  -4.6539  -4.6439  -4.5877  -4.5504  -4.5343  -4.5329  -4.5148
    -3.2971  -2.8370  -2.7403  -2.3092  -0.6123  -0.5032  -0.4046  -0.3786
    -0.2789  -0.2243  -0.1573  -0.0742  -0.0146   0.0082   0.0734   0.1365
     2.3775   2.4907   2.5214   2.5348   2.6794   2.6801   2.7718   2.8161
     2.8536   2.8958   2.9511   3.1310   3.1498   3.2353   3.4043   3.4600
     3.6340   3.7236   3.8112   3.9017   4.4020   4.7724   4.8752   4.8813
     4.9511   5.0237   5.0761   5.1077   5.1192   5.1723   5.1776   5.2275
    11.1825  11.9458  12.0193  12.2120  12.2269  12.3751  12.5136  12.5609
    12.6960  12.7447  12.9782  13.0436  13.2105  13.2384  13.4990  13.6529

          k = 0.0000 0.0000 0.2027 ( 14156 PWs)   bands (ev):

   -19.4259 -19.3973 -19.3630 -19.3585 -16.9882 -16.9677 -16.9332 -16.9214
   -13.0098 -12.9920 -12.9740 -12.9247 -12.9110 -12.9083 -12.8918 -12.8825
   -12.8387 -12.8344 -12.8280 -12.8267  -5.0165  -4.8176  -4.7839  -4.7214
    -4.6810  -4.6770  -4.6451  -4.6115  -4.5940  -4.5735  -4.5467  -4.5437
    -3.0145  -2.8264  -2.7765  -2.5345  -0.4907  -0.4751  -0.4138  -0.3773
    -0.3443  -0.2035  -0.1792  -0.1145   0.0148   0.0251   0.0576   0.0663
     2.4711   2.5020   2.5341   2.6257   2.7077   2.7186   2.7933   2.8067
     2.8710   2.9181   3.0201   3.1191   3.1221   3.1611   3.2900   3.4584
     3.5525   3.7263   3.7324   3.8549   4.5432   4.8130   4.8186   4.8958
     4.9152   4.9859   5.0069   5.0847   5.1655   5.1860   5.2071   5.2165
    11.5534  11.9305  11.9735  12.1545  12.3263  12.3524  12.4260  12.5352
    12.5711  12.6074  12.7989  12.9674  13.1441  13.2815  13.6849  13.7050

          k = 0.0000 0.2514 0.0000 ( 14140 PWs)   bands (ev):

   -19.4205 -19.3850 -19.3728 -19.3608 -16.9984 -16.9774 -16.9351 -16.9227
   -13.0253 -13.0209 -12.9226 -12.9048 -12.8982 -12.8895 -12.8866 -12.8535
   -12.8453 -12.8444 -12.8438 -12.8380  -5.0613  -4.9062  -4.8330  -4.8013
    -4.6999  -4.6729  -4.6626  -4.6477  -4.6344  -4.5617  -4.5467  -4.5298
    -2.9173  -2.6942  -2.6917  -2.4164  -0.5365  -0.4772  -0.3608  -0.3204
    -0.2775  -0.2525  -0.1662  -0.0870  -0.0662  -0.0173   0.0105   0.1176
     2.4048   2.4400   2.5089   2.5581   2.6672   2.7532   2.8221   2.8643
     2.9337   2.9382   2.9964   3.0878   3.1245   3.1521   3.3918   3.4532
     3.4838   3.6516   3.7082   3.8472   4.4447   4.7173   4.8613   4.9315
     4.9334   5.0635   5.1050   5.1096   5.1112   5.1283   5.1895   5.2809
    11.7401  11.8625  12.0234  12.2111  12.3487  12.4381  12.4500  12.5007
    12.9265  12.9994  13.1428  13.1880  13.2991  13.3297  13.4946  13.5087

          k = 0.0000 0.2514 0.2027 ( 14128 PWs)   bands (ev):

   -19.4098 -19.3886 -19.3754 -19.3655 -16.9931 -16.9827 -16.9318 -16.9256
   -13.0103 -13.0048 -12.9304 -12.9158 -12.8995 -12.8901 -12.8886 -12.8735
   -12.8435 -12.8416 -12.8402 -12.8357  -5.0065  -4.8836  -4.8583  -4.8320
    -4.6982  -4.6652  -4.6628  -4.6299  -4.6183  -4.5860  -4.5655  -4.5628
    -2.7954  -2.7103  -2.6973  -2.5415  -0.4463  -0.4086  -0.3415  -0.3358
    -0.3004  -0.2477  -0.1501  -0.0781  -0.0692  -0.0684  -0.0216   0.0411
     2.4826   2.5186   2.5535   2.6124   2.6591   2.7383   2.7730   2.8839
     2.8847   2.9583   2.9736   3.0713   3.1263   3.1398   3.3026   3.3800
     3.5273   3.6469   3.7455   3.8151   4.5277   4.6704   4.8924   4.9480
     4.9806   4.9871   5.0643   5.0805   5.0948   5.1209   5.2354   5.2719
    11.8560  11.9636  12.0444  12.2170  12.3711  12.4738  12.5221  12.5916
    12.8319  12.8890  12.9698  13.0914  13.1840  13.2916  13.4347  13.5808

          k = 0.3304 0.0000 0.0000 ( 14113 PWs)   bands (ev):

   -19.4105 -19.3736 -19.3726 -19.3616 -16.9752 -16.9685 -16.9676 -16.9267
   -13.0298 -12.9844 -12.9579 -12.9537 -12.9176 -12.9047 -12.8961 -12.8705
   -12.8627 -12.8496 -12.8471 -12.8318  -4.8547  -4.7855  -4.7271  -4.6686
    -4.6592  -4.6591  -4.6348  -4.6266  -4.6128  -4.6087  -4.5774  -4.5492
    -2.8855  -2.8418  -2.6108  -2.5562  -0.6480  -0.4328  -0.3717  -0.3241
    -0.2926  -0.2585  -0.1316  -0.1292  -0.0569  -0.0259   0.0090   0.0695
     2.4236   2.4289   2.4834   2.7295   2.7767   2.7936   2.8666   2.8829
     2.9128   2.9402   3.0221   3.1158   3.1278   3.2101   3.2708   3.3972
     3.4248   3.5529   3.6225   3.7349   4.6006   4.6466   4.7531   4.7717
     4.9091   4.9230   4.9333   4.9646   5.0554   5.1406   5.1674   5.1750
    12.0580  12.0867  12.2111  12.4570  12.5742  12.6241  12.6465  12.6685
    12.8178  12.8359  12.8631  12.9318  13.0871  13.3890  13.3899  13.4830

          k = 0.3304 0.0000 0.2027 ( 14107 PWs)   bands (ev):

   -19.4017 -19.3831 -19.3700 -19.3637 -16.9740 -16.9704 -16.9570 -16.9368
   -13.0065 -12.9664 -12.9633 -12.9487 -12.9355 -12.9139 -12.9069 -12.8803
   -12.8599 -12.8567 -12.8388 -12.8289  -4.8682  -4.8411  -4.7210  -4.6997
    -4.6629  -4.6618  -4.6175  -4.6057  -4.5882  -4.5786  -4.5744  -4.5396
    -2.8081  -2.7873  -2.6704  -2.6419  -0.6076  -0.5029  -0.3694  -0.3400
    -0.2697  -0.1779  -0.1195  -0.0829  -0.0809  -0.0543  -0.0212   0.0122
     2.4505   2.4583   2.6478   2.7514   2.8060   2.8165   2.8425   2.9161
     2.9262   2.9718   3.0027   3.0622   3.0694   3.1630   3.1802   3.2163
     3.5269   3.6067   3.6215   3.6683   4.6542   4.7126   4.7509   4.7687
     4.8840   4.8855   4.9298   4.9572   5.0349   5.0864   5.1943   5.2038
    12.0652  12.1553  12.2473  12.2598  12.3894  12.5322  12.5427  12.6963
    12.9357  13.0217  13.1223  13.1311  13.1967  13.2968  13.4083  13.5269

          k = 0.3304 0.2514 0.0000 ( 14101 PWs)   bands (ev):

   -19.3995 -19.3809 -19.3688 -19.3634 -16.9864 -16.9846 -16.9526 -16.9372
   -13.0246 -13.0065 -12.9625 -12.9482 -12.9178 -12.8893 -12.8888 -12.8823
   -12.8617 -12.8407 -12.8221 -12.8122  -4.9786  -4.9282  -4.7648  -4.7049
    -4.6606  -4.6579  -4.6410  -4.6334  -4.6222  -4.5905  -4.5645  -4.5471
    -2.7884  -2.6649  -2.5775  -2.4319  -0.5358  -0.4478  -0.4318  -0.3603
    -0.3072  -0.2723  -0.2197  -0.1537  -0.0326   0.0118   0.0353   0.0754
     2.4077   2.4232   2.5058   2.6873   2.8025   2.8036   2.8507   2.9017
     2.9573   2.9791   3.0147   3.0265   3.0952   3.1495   3.3515   3.4045
     3.4135   3.4648   3.6001   3.6285   4.6111   4.6282   4.7378   4.7705
     4.9161   4.9259   4.9406   5.0549   5.0721   5.1283   5.1889   5.2082
    12.2201  12.2672  12.4361  12.4843  12.5099  12.6405  12.6906  12.8457
    12.8554  12.9239  12.9935  13.1573  13.3019  13.3153  13.3388  13.4863

          k = 0.3304 0.2514 0.2027 ( 14105 PWs)   bands (ev):

   -19.3924 -19.3792 -19.3739 -19.3671 -16.9822 -16.9810 -16.9533 -16.9447
   -13.0024 -12.9875 -12.9558 -12.9438 -12.9233 -12.9165 -12.8969 -12.8955
   -12.8545 -12.8455 -12.8203 -12.8148  -4.9417  -4.8911  -4.8367  -4.7912
    -4.6608  -4.6423  -4.6163  -4.6096  -4.5918  -4.5879  -4.5738  -4.5555
    -2.7011  -2.6452  -2.6009  -2.5216  -0.5248  -0.4622  -0.3919  -0.3808
    -0.2701  -0.2294  -0.1703  -0.1150  -0.0737  -0.0307  -0.0150   0.0164
     2.4336   2.4556   2.5269   2.6519   2.7648   2.7873   2.9006   2.9192
     2.9559   2.9845   3.0232   3.0335   3.1221   3.1721   3.2829   3.2922
     3.4749   3.5414   3.5774   3.5920   4.6352   4.6964   4.7302   4.7852
     4.8490   4.8861   4.9722   5.0274   5.0921   5.1376   5.1598   5.1866
    12.2184  12.2708  12.3672  12.4701  12.4874  12.5120  12.7440  12.7788
    12.9107  12.9835  13.1431  13.1828  13.2317  13.2929  13.4938  13.5152

     the Fermi energy is     9.6640 ev

!    total energy              =   -2509.40122963 Ry
     estimated scf accuracy    <          7.8E-09 Ry
     smearing contrib. (-TS)   =      -0.00000000 Ry
     internal energy E=F+TS    =   -2509.40122963 Ry

     The total energy is F=E-TS. E is the sum of the following terms:
     one-electron contribution =    -253.14023052 Ry
     hartree contribution      =     221.80711366 Ry
     xc contribution           =    -235.88080104 Ry
     ewald contribution        =    -590.08207062 Ry
     one-center paw contrib.   =   -1652.10524112 Ry

     convergence has been achieved in  19 iterations

     Forces acting on atoms (cartesian axes, Ry/au):

     atom    1 type  1   force =    -0.00000000   -0.00010474    0.00023831
     atom    2 type  1   force =    -0.00000000    0.00010474   -0.00023831
     atom    3 type  1   force =     0.00000000   -0.00010474   -0.00023831
     atom    4 type  1   force =     0.00000000    0.00010474    0.00023831
     atom    5 type  2   force =     0.00000000    0.00308008   -0.00270577
     atom    6 type  2   force =    -0.00000000   -0.00308008    0.00270577
     atom    7 type  2   force =    -0.00000000    0.00308008    0.00270577
     atom    8 type  2   force =     0.00000000   -0.00308008   -0.00270577
     atom    9 type  3   force =     0.02081621   -0.01483771    0.00274989
     atom   10 type  3   force =     0.02081621    0.01483771   -0.00274989
     atom   11 type  3   force =    -0.02081621   -0.01483771   -0.00274989
     atom   12 type  3   force =    -0.02081621    0.01483771    0.00274989
     atom   13 type  3   force =    -0.02081621    0.01483771   -0.00274989
     atom   14 type  3   force =    -0.02081621   -0.01483771    0.00274989
     atom   15 type  3   force =     0.02081621    0.01483771    0.00274989
     atom   16 type  3   force =     0.02081621   -0.01483771   -0.00274989
     atom   17 type  3   force =     0.00000000   -0.01353663    0.02812192
     atom   18 type  3   force =     0.00000000    0.01353663   -0.02812192
     atom   19 type  3   force =     0.00000000   -0.01353663   -0.02812192
     atom   20 type  3   force =     0.00000000    0.01353663    0.02812192
     atom   21 type  3   force =     0.00000000    0.01981834   -0.01912926
     atom   22 type  3   force =     0.00000000   -0.01981834    0.01912926
     atom   23 type  3   force =    -0.00000000    0.01981834    0.01912926
     atom   24 type  3   force =     0.00000000   -0.01981834   -0.01912926

     Total force =     0.110846     Total SCF correction =     0.000264


     Computing stress (Cartesian axis) and pressure

          total   stress  (Ry/bohr**3)                   (kbar)     P=      -16.15
  -0.00009134   0.00000000   0.00000000          -13.44        0.00        0.00
   0.00000000  -0.00010778   0.00000000            0.00      -15.85        0.00
   0.00000000   0.00000000  -0.00013025            0.00        0.00      -19.16

     Energy error            =      1.0E-02
     Gradient error          =      2.8E-02
     Cell gradient error     =      1.3E-04


     number of scf cycles    =   2
     number of bfgs steps    =   1

     enthalpy old            =   -2509.3907542219 Ry
     enthalpy new            =   -2509.4012296333 Ry

     CASE: enthalpy_new < enthalpy_old

     new trust radius        =       0.0202502554 bohr
     new conv_thr            =       0.0000000100 Ry

     new unit-cell volume =   2416.95019 a.u.^3 (   358.15507 Ang^3 )
     density =      4.32820 g/cm^3

CELL_PARAMETERS (angstrom)
   5.510412964   0.000000000   0.000000000
  -0.000000000   7.239618860   0.000000000
   0.000000000   0.000000000   8.977827338

ATOMIC_POSITIONS (angstrom)
Ba            1.3776032411        6.1045593568        6.1510228200
Ba            4.1328097233        1.1350595036        2.8268045183
Ba            4.1328097233        2.4847499266        7.3157181875
Ba            1.3776032411        4.7548689338        1.6621091508
S             1.3776032411        2.2416599958        5.0434653717
S             4.1328097233        4.9979588645        3.9343619667
S             4.1328097233        5.8614694260        8.4232756358
S             1.3776032411        1.3781494344        0.5545517025
O             2.9118945785        5.8763101966        3.7681282159
O             0.1566880963        1.3633086638        5.2096991225
O             2.5985183859        2.2565007664        0.7207854533
O             5.3537248680        4.9831180939        8.2570418850
O             2.5985183859        1.3633086638        5.2096991225
O             5.3537248680        5.8763101966        3.7681282159
O             2.9118945785        4.9831180939        8.2570418850
O             0.1566880963        2.2565007664        0.7207854533
O             1.3776032411        2.8365159642        3.6856968842
O             4.1328097233        4.4031028962        5.2921304542
O             4.1328097233        6.4563253943        0.8032167850
O             1.3776032411        0.7832934660        8.1746105533
O             1.3776032411        0.3470747659        1.6389542214
O             4.1328097233        6.8925440945        7.3388731169
O             4.1328097233        3.9668841960        2.8499594478
O             1.3776032411        3.2727346643        6.1278678906



     Writing output data file ./out/BaO4S.save/
     NEW-OLD atomic charge density approx. for the potential

     Check: negative core charge=   -0.000002
     extrapolated charge  159.19889, renormalised to  160.00000

     total cpu time spent up to now is     1485.1 secs

     Self-consistent Calculation

     iteration #  1     ecut=    50.00 Ry     beta= 0.30
     Davidson diagonalization with overlap
     ethr =  1.00E-06,  avg # of iterations =  6.4

     total cpu time spent up to now is     1545.3 secs

     total energy              =   -2509.39206377 Ry
     estimated scf accuracy    <       0.02059116 Ry

     iteration #  2     ecut=    50.00 Ry     beta= 0.30
     Davidson diagonalization with overlap
     ethr =  1.29E-05,  avg # of iterations =  7.1

     total cpu time spent up to now is     1582.7 secs

     total energy              =   -2509.40678521 Ry
     estimated scf accuracy    <       0.00426100 Ry

     iteration #  3     ecut=    50.00 Ry     beta= 0.30
     Davidson diagonalization with overlap
     ethr =  2.66E-06,  avg # of iterations =  7.5

     total cpu time spent up to now is     1612.2 secs

     total energy              =   -2509.40609980 Ry
     estimated scf accuracy    <       0.00144323 Ry

     iteration #  4     ecut=    50.00 Ry     beta= 0.30
     Davidson diagonalization with overlap
     ethr =  9.02E-07,  avg # of iterations =  2.4

     total cpu time spent up to now is     1640.9 secs

     total energy              =   -2509.40645589 Ry
     estimated scf accuracy    <       0.00003803 Ry

     iteration #  5     ecut=    50.00 Ry     beta= 0.30
     Davidson diagonalization with overlap
     ethr =  2.38E-08,  avg # of iterations =  2.2

     total cpu time spent up to now is     1672.1 secs

     total energy              =   -2509.40646629 Ry
     estimated scf accuracy    <       0.00002818 Ry

     iteration #  6     ecut=    50.00 Ry     beta= 0.30
     Davidson diagonalization with overlap
     ethr =  1.76E-08,  avg # of iterations =  2.0

     total cpu time spent up to now is     1696.8 secs

     total energy              =   -2509.40645984 Ry
     estimated scf accuracy    <       0.00002852 Ry

     iteration #  7     ecut=    50.00 Ry     beta= 0.30
     Davidson diagonalization with overlap
     ethr =  1.76E-08,  avg # of iterations =  4.0

     total cpu time spent up to now is     1737.0 secs

     total energy              =   -2509.40643924 Ry
     estimated scf accuracy    <       0.00012294 Ry

     iteration #  8     ecut=    50.00 Ry     beta= 0.30
     Davidson diagonalization with overlap
     ethr =  1.76E-08,  avg # of iterations =  3.0

     total cpu time spent up to now is     1774.3 secs

     total energy              =   -2509.40646849 Ry
     estimated scf accuracy    <       0.00000165 Ry

     iteration #  9     ecut=    50.00 Ry     beta= 0.30
     Davidson diagonalization with overlap
     ethr =  1.03E-09,  avg # of iterations =  5.0

     total cpu time spent up to now is     1814.9 secs

     total energy              =   -2509.40646762 Ry
     estimated scf accuracy    <       0.00000566 Ry

     iteration # 10     ecut=    50.00 Ry     beta= 0.30
     Davidson diagonalization with overlap
     ethr =  1.03E-09,  avg # of iterations =  3.0

     total cpu time spent up to now is     1847.5 secs

     total energy              =   -2509.40646821 Ry
     estimated scf accuracy    <       0.00000034 Ry

     iteration # 11     ecut=    50.00 Ry     beta= 0.30
     Davidson diagonalization with overlap
     ethr =  2.14E-10,  avg # of iterations =  2.0

     total cpu time spent up to now is     1876.7 secs

     total energy              =   -2509.40646827 Ry
     estimated scf accuracy    <       0.00000016 Ry

     iteration # 12     ecut=    50.00 Ry     beta= 0.30
     Davidson diagonalization with overlap
     ethr =  9.90E-11,  avg # of iterations =  2.0

     total cpu time spent up to now is     1905.0 secs

     total energy              =   -2509.40646828 Ry
     estimated scf accuracy    <       0.00000014 Ry

     iteration # 13     ecut=    50.00 Ry     beta= 0.30
     Davidson diagonalization with overlap
     ethr =  8.97E-11,  avg # of iterations =  1.0

     total cpu time spent up to now is     1926.0 secs

     total energy              =   -2509.40646829 Ry
     estimated scf accuracy    <       0.00000004 Ry

     iteration # 14     ecut=    50.00 Ry     beta= 0.30
     Davidson diagonalization with overlap
     ethr =  2.22E-11,  avg # of iterations =  3.1

     total cpu time spent up to now is     1960.0 secs

     total energy              =   -2509.40646829 Ry
     estimated scf accuracy    <       0.00000009 Ry

     iteration # 15     ecut=    50.00 Ry     beta= 0.30
     Davidson diagonalization with overlap
     ethr =  2.22E-11,  avg # of iterations =  2.0

     total cpu time spent up to now is     1991.3 secs

     End of self-consistent calculation

          k = 0.0000 0.0000 0.0000 ( 14081 PWs)   bands (ev):

   -19.3922 -19.3294 -19.3148 -19.3069 -17.1149 -17.0685 -17.0569 -17.0323
   -13.0877 -13.0432 -13.0426 -12.9670 -12.9528 -12.9265 -12.8932 -12.8907
   -12.8809 -12.8622 -12.8529 -12.8442  -5.0366  -4.8010  -4.7069  -4.6694
    -4.6443  -4.6096  -4.5954  -4.5357  -4.5025  -4.4795  -4.4787  -4.4636
    -3.1659  -2.7022  -2.6057  -2.1781  -0.5788  -0.4827  -0.3774  -0.3566
    -0.2405  -0.1874  -0.1245  -0.0349   0.0134   0.0449   0.1006   0.1704
     2.3846   2.4849   2.5232   2.5415   2.6729   2.6765   2.7700   2.8258
     2.8528   2.9131   2.9502   3.1280   3.1701   3.2386   3.4253   3.4787
     3.6444   3.7323   3.8185   3.9119   4.4683   4.8414   4.9347   4.9397
     5.0178   5.0867   5.1299   5.1642   5.1791   5.2231   5.2329   5.2888
    11.3593  12.0027  12.1177  12.3166  12.3871  12.4651  12.6748  12.7493
    12.8108  12.8674  13.0368  13.1691  13.2753  13.3733  13.6203  13.7359

          k = 0.0000 0.0000 0.2031 ( 14156 PWs)   bands (ev):

   -19.3780 -19.3475 -19.3117 -19.3069 -17.1036 -17.0811 -17.0494 -17.0378
   -13.0741 -13.0516 -13.0216 -12.9762 -12.9577 -12.9286 -12.9186 -12.9021
   -12.8596 -12.8586 -12.8503 -12.8459  -4.9573  -4.7621  -4.7341  -4.6698
    -4.6341  -4.6291  -4.5960  -4.5626  -4.5459  -4.5203  -4.4964  -4.4904
    -2.8872  -2.6921  -2.6413  -2.4052  -0.4560  -0.4542  -0.3922  -0.3451
    -0.3073  -0.1672  -0.1456  -0.0800   0.0426   0.0613   0.0849   0.1001
     2.4787   2.5002   2.5273   2.6244   2.7107   2.7181   2.7862   2.8088
     2.8908   2.9168   3.0275   3.1355   3.1406   3.1624   3.3045   3.4690
     3.5676   3.7363   3.7426   3.8655   4.6064   4.8791   4.8816   4.9533
     4.9830   5.0430   5.0618   5.1409   5.2261   5.2388   5.2626   5.2774
    11.7315  12.0651  12.0831  12.2500  12.4405  12.4947  12.5492  12.6534
    12.6562  12.7072  12.9332  13.0824  13.2789  13.3614  13.7745  13.7883

          k = 0.0000 0.2518 0.0000 ( 14140 PWs)   bands (ev):

   -19.3723 -19.3346 -19.3215 -19.3091 -17.1148 -17.0918 -17.0507 -17.0380
   -13.0903 -13.0825 -12.9800 -12.9558 -12.9357 -12.9150 -12.8967 -12.8843
   -12.8769 -12.8744 -12.8556 -12.8496  -5.0048  -4.8522  -4.7781  -4.7415
    -4.6520  -4.6252  -4.6143  -4.5957  -4.5836  -4.5100  -4.4981  -4.4796
    -2.7912  -2.5635  -2.5571  -2.2848  -0.5044  -0.4470  -0.3392  -0.2835
    -0.2549  -0.2198  -0.1308  -0.0598  -0.0399   0.0158   0.0494   0.1550
     2.4173   2.4530   2.5013   2.5534   2.6696   2.7516   2.8339   2.8611
     2.9377   2.9416   2.9933   3.1046   3.1289   3.1648   3.4015   3.4626
     3.4944   3.6615   3.7189   3.8581   4.5106   4.7800   4.9276   4.9906
     4.9908   5.1235   5.1613   5.1693   5.1751   5.1847   5.2454   5.3378
    11.8876  11.9358  12.1712  12.3195  12.4482  12.5970  12.6141  12.6251
    13.0688  13.1151  13.2449  13.2637  13.3650  13.4148  13.5914  13.7605

          k = 0.0000 0.2518 0.2031 ( 14128 PWs)   bands (ev):

   -19.3609 -19.3383 -19.3247 -19.3142 -17.1089 -17.0975 -17.0473 -17.0410
   -13.0750 -13.0681 -12.9906 -12.9768 -12.9261 -12.9096 -12.9057 -12.9002
   -12.8714 -12.8670 -12.8553 -12.8519  -4.9487  -4.8277  -4.8012  -4.7755
    -4.6503  -4.6154  -4.6147  -4.5811  -4.5680  -4.5376  -4.5144  -4.5133
    -2.6686  -2.5787  -2.5638  -2.4113  -0.4138  -0.3750  -0.3197  -0.3003
    -0.2780  -0.2143  -0.1162  -0.0512  -0.0419  -0.0349   0.0146   0.0784
     2.4900   2.5135   2.5501   2.6238   2.6617   2.7443   2.7795   2.8818
     2.8888   2.9648   2.9674   3.0910   3.1422   3.1554   3.3043   3.3875
     3.5354   3.6542   3.7558   3.8258   4.5936   4.7352   4.9571   5.0054
     5.0420   5.0432   5.1221   5.1394   5.1521   5.1807   5.2932   5.3294
    11.9642  12.0570  12.2350  12.3782  12.5054  12.5881  12.6318  12.6844
    12.9228  12.9712  13.1297  13.2213  13.3327  13.4090  13.5120  13.6495

          k = 0.3308 0.0000 0.0000 ( 14113 PWs)   bands (ev):

   -19.3613 -19.3222 -19.3213 -19.3101 -17.0896 -17.0855 -17.0845 -17.0439
   -13.0887 -13.0466 -13.0152 -12.9754 -12.9645 -12.9334 -12.9221 -12.8917
   -12.8824 -12.8766 -12.8663 -12.8615  -4.7993  -4.7337  -4.6736  -4.6192
    -4.6115  -4.6112  -4.5869  -4.5763  -4.5669  -4.5559  -4.5257  -4.4982
    -2.7540  -2.7078  -2.4758  -2.4256  -0.6144  -0.4046  -0.3394  -0.2917
    -0.2547  -0.2310  -0.0988  -0.0975  -0.0289   0.0073   0.0404   0.1000
     2.4261   2.4284   2.4843   2.7227   2.7754   2.7914   2.8595   2.8850
     2.9195   2.9507   3.0397   3.1275   3.1386   3.2265   3.2906   3.4105
     3.4359   3.5625   3.6334   3.7415   4.6688   4.7069   4.8147   4.8361
     4.9712   4.9878   4.9881   5.0258   5.1099   5.2010   5.2253   5.2335
    12.1673  12.2885  12.2898  12.5776  12.6559  12.7226  12.7680  12.7882
    12.8697  12.9658  12.9816  13.0647  13.1963  13.4520  13.4668  13.6004

          k = 0.3308 0.0000 0.2031 ( 14107 PWs)   bands (ev):

   -19.3520 -19.3324 -19.3186 -19.3121 -17.0893 -17.0868 -17.0737 -17.0538
   -13.0671 -13.0288 -13.0252 -12.9846 -12.9719 -12.9489 -12.9198 -12.8927
   -12.8823 -12.8803 -12.8664 -12.8564  -4.8136  -4.7873  -4.6684  -4.6469
    -4.6150  -4.6127  -4.5699  -4.5599  -4.5391  -4.5286  -4.5238  -4.4890
    -2.6771  -2.6530  -2.5352  -2.5110  -0.5747  -0.4721  -0.3346  -0.3041
    -0.2394  -0.1501  -0.0884  -0.0524  -0.0494  -0.0248   0.0113   0.0428
     2.4501   2.4584   2.6472   2.7462   2.8049   2.8236   2.8363   2.9119
     2.9234   2.9904   3.0134   3.0737   3.0853   3.1780   3.1972   3.2307
     3.5410   3.6184   3.6335   3.6778   4.7197   4.7749   4.8123   4.8328
     4.9416   4.9457   4.9928   5.0211   5.0895   5.1446   5.2519   5.2613
    12.1736  12.3189  12.3415  12.3849  12.4887  12.6629  12.6675  12.8249
    13.0264  13.1153  13.2155  13.2459  13.2850  13.3752  13.4964  13.6122

          k = 0.3308 0.2518 0.0000 ( 14101 PWs)   bands (ev):

   -19.3495 -19.3297 -19.3173 -19.3118 -17.1031 -17.1000 -17.0695 -17.0543
   -13.0866 -13.0716 -13.0041 -12.9892 -12.9449 -12.9228 -12.9115 -12.9048
   -12.8880 -12.8680 -12.8460 -12.8384  -4.9223  -4.8710  -4.7122  -4.6516
    -4.6127  -4.6119  -4.5908  -4.5847  -4.5723  -4.5404  -4.5150  -4.4964
    -2.6531  -2.5315  -2.4483  -2.3004  -0.5032  -0.4129  -0.3952  -0.3284
    -0.2780  -0.2388  -0.1937  -0.1274  -0.0052   0.0411   0.0703   0.1102
     2.4112   2.4267   2.5115   2.6967   2.8053   2.8079   2.8424   2.9041
     2.9627   2.9739   3.0229   3.0245   3.1116   3.1651   3.3644   3.4136
     3.4276   3.4780   3.6100   3.6378   4.6760   4.6912   4.8022   4.8318
     4.9764   4.9850   5.0049   5.1154   5.1312   5.1870   5.2449   5.2646
    12.3064  12.3793  12.5165  12.6157  12.6789  12.7559  12.8331  12.9251
    12.9616  13.0567  13.0889  13.2557  13.4144  13.4178  13.4496  13.5557

          k = 0.3308 0.2518 0.2031 ( 14105 PWs)   bands (ev):

   -19.3420 -19.3282 -19.3227 -19.3156 -17.0987 -17.0972 -17.0698 -17.0614
   -13.0654 -13.0529 -13.0101 -12.9976 -12.9460 -12.9362 -12.9191 -12.9103
   -12.8814 -12.8710 -12.8456 -12.8407  -4.8863  -4.8362  -4.7828  -4.7395
    -4.6117  -4.5933  -4.5656  -4.5607  -4.5415  -4.5386  -4.5240  -4.5052
    -2.5675  -2.5126  -2.4707  -2.3898  -0.4918  -0.4285  -0.3566  -0.3475
    -0.2382  -0.1988  -0.1433  -0.0863  -0.0431  -0.0008   0.0158   0.0484
     2.4374   2.4623   2.5266   2.6602   2.7669   2.7901   2.9004   2.9199
     2.9600   2.9795   3.0332   3.0416   3.1302   3.1850   3.2975   3.3068
     3.4851   3.5518   3.5875   3.6025   4.6996   4.7621   4.7917   4.8467
     4.9080   4.9501   5.0319   5.0879   5.1503   5.1950   5.2173   5.2442
    12.3310  12.3760  12.4900  12.5795  12.6291  12.6427  12.8585  12.8777
    13.0062  13.0719  13.2468  13.2781  13.3201  13.3926  13.5891  13.6272

     the Fermi energy is     9.7428 ev

!    total energy              =   -2509.40646829 Ry
     estimated scf accuracy    <          9.0E-09 Ry
     smearing contrib. (-TS)   =      -0.00000000 Ry
     internal energy E=F+TS    =   -2509.40646829 Ry

     The total energy is F=E-TS. E is the sum of the following terms:
     one-electron contribution =    -256.58165183 Ry
     hartree contribution      =     223.80592017 Ry
     xc contribution           =    -236.14763852 Ry
     ewald contribution        =    -588.39586023 Ry
     one-center paw contrib.   =   -1652.08723788 Ry

     convergence has been achieved in  15 iterations

     Forces acting on atoms (cartesian axes, Ry/au):

     atom    1 type  1   force =    -0.00000000    0.00010381    0.00020147
     atom    2 type  1   force =     0.00000000   -0.00010381   -0.00020147
     atom    3 type  1   force =     0.00000000    0.00010381   -0.00020147
     atom    4 type  1   force =     0.00000000   -0.00010381    0.00020147
     atom    5 type  2   force =    -0.00000000   -0.00388762    0.00333152
     atom    6 type  2   force =    -0.00000000    0.00388762   -0.00333152
     atom    7 type  2   force =     0.00000000   -0.00388762   -0.00333152
     atom    8 type  2   force =     0.00000000    0.00388762    0.00333152
     atom    9 type  3   force =     0.00551282   -0.00417807    0.00085289
     atom   10 type  3   force =     0.00551282    0.00417807   -0.00085289
     atom   11 type  3   force =    -0.00551282   -0.00417807   -0.00085289
     atom   12 type  3   force =    -0.00551282    0.00417807    0.00085289
     atom   13 type  3   force =    -0.00551282    0.00417807   -0.00085289
     atom   14 type  3   force =    -0.00551282   -0.00417807    0.00085289
     atom   15 type  3   force =     0.00551282    0.00417807    0.00085289
     atom   16 type  3   force =     0.00551282   -0.00417807   -0.00085289
     atom   17 type  3   force =     0.00000000   -0.00130934    0.00236946
     atom   18 type  3   force =     0.00000000    0.00130934   -0.00236946
     atom   19 type  3   force =     0.00000000   -0.00130934   -0.00236946
     atom   20 type  3   force =    -0.00000000    0.00130934    0.00236946
     atom   21 type  3   force =     0.00000000    0.00338492   -0.00334876
     atom   22 type  3   force =    -0.00000000   -0.00338492    0.00334876
     atom   23 type  3   force =     0.00000000    0.00338492    0.00334876
     atom   24 type  3   force =     0.00000000   -0.00338492   -0.00334876

     Total force =     0.024772     Total SCF correction =     0.000308


     Computing stress (Cartesian axis) and pressure

          total   stress  (Ry/bohr**3)                   (kbar)     P=        4.12
   0.00002504   0.00000000   0.00000000            3.68        0.00        0.00
   0.00000000   0.00002433   0.00000000            0.00        3.58        0.00
   0.00000000   0.00000000   0.00003458            0.00        0.00        5.09

     Energy error            =      5.2E-03
     Gradient error          =      5.5E-03
     Cell gradient error     =      3.5E-05


     number of scf cycles    =   3
     number of bfgs steps    =   2

     enthalpy old            =   -2509.4012296333 Ry
     enthalpy new            =   -2509.4064682907 Ry

     CASE: enthalpy_new < enthalpy_old

     new trust radius        =       0.0099903765 bohr
     new conv_thr            =       0.0000000055 Ry

     new unit-cell volume =   2423.04227 a.u.^3 (   359.05782 Ang^3 )
     density =      4.31732 g/cm^3

CELL_PARAMETERS (angstrom)
   5.514643668   0.000000000   0.000000000
  -0.000000000   7.244937473   0.000000000
   0.000000000   0.000000000   8.986949321

ATOMIC_POSITIONS (angstrom)
Ba            1.3786609169        6.1091038676        6.1574009200
Ba            4.1359827508        1.1358336058        2.8295484015
Ba            4.1359827508        2.4866351309        7.3230230622
Ba            1.3786609169        4.7583023424        1.6639262592
S             1.3786609169        2.2410112774        5.0505676659
S             4.1359827508        5.0039261960        3.9363816556
S             4.1359827508        5.8634800140        8.4298563163
S             1.3786609169        1.3814574593        0.5570930051
O             2.9175636050        5.8780341171        3.7724865247
O             0.1602417711        1.3669033562        5.2144627968
O             2.5970800628        2.2555653804        0.7209881360
O             5.3544018966        4.9893720929        8.2659611855
O             2.5970800628        1.3669033562        5.2144627968
O             5.3544018966        5.8780341171        3.7724865247
O             2.9175636050        4.9893720929        8.2659611855
O             0.1602417711        2.2555653804        0.7209881360
O             1.3786609169        2.8377152134        3.6910403706
O             4.1359827508        4.4072222600        5.2959089509
O             4.1359827508        6.4601839501        0.8024342901
O             1.3786609169        0.7847535233        8.1845150313
O             1.3786609169        0.3494846636        1.6385089957
O             4.1359827508        6.8954528097        7.3484403258
O             4.1359827508        3.9719534003        2.8549656651
O             1.3786609169        3.2729840731        6.1319836564



     Writing output data file ./out/BaO4S.save/
     NEW-OLD atomic charge density approx. for the potential

     Check: negative core charge=   -0.000002
     extrapolated charge  160.40211, renormalised to  160.00000

     total cpu time spent up to now is     2062.6 secs

     Self-consistent Calculation

     iteration #  1     ecut=    50.00 Ry     beta= 0.30
     Davidson diagonalization with overlap
     ethr =  1.00E-06,  avg # of iterations =  6.4

     total cpu time spent up to now is     2111.6 secs

     total energy              =   -2509.40472785 Ry
     estimated scf accuracy    <       0.00183215 Ry

     iteration #  2     ecut=    50.00 Ry     beta= 0.30
     Davidson diagonalization with overlap
     ethr =  1.15E-06,  avg # of iterations =  4.5

     total cpu time spent up to now is     2150.5 secs

     total energy              =   -2509.40722046 Ry
     estimated scf accuracy    <       0.00202179 Ry

     iteration #  3     ecut=    50.00 Ry     beta= 0.30
     Davidson diagonalization with overlap
     ethr =  1.15E-06,  avg # of iterations =  1.0

     total cpu time spent up to now is     2171.6 secs

     total energy              =   -2509.40667237 Ry
     estimated scf accuracy    <       0.00101417 Ry

     iteration #  4     ecut=    50.00 Ry     beta= 0.30
     Davidson diagonalization with overlap
     ethr =  6.34E-07,  avg # of iterations =  2.0

     total cpu time spent up to now is     2201.0 secs

     total energy              =   -2509.40696012 Ry
     estimated scf accuracy    <       0.00003745 Ry

     iteration #  5     ecut=    50.00 Ry     beta= 0.30
     Davidson diagonalization with overlap
     ethr =  2.34E-08,  avg # of iterations =  2.5

     total cpu time spent up to now is     2227.7 secs

     total energy              =   -2509.40695688 Ry
     estimated scf accuracy    <       0.00002884 Ry

     iteration #  6     ecut=    50.00 Ry     beta= 0.30
     Davidson diagonalization with overlap
     ethr =  1.80E-08,  avg # of iterations =  2.0

     total cpu time spent up to now is     2257.0 secs

     total energy              =   -2509.40696912 Ry
     estimated scf accuracy    <       0.00001487 Ry

     iteration #  7     ecut=    50.00 Ry     beta= 0.30
     Davidson diagonalization with overlap
     ethr =  9.30E-09,  avg # of iterations =  2.0

     total cpu time spent up to now is     2285.4 secs

     total energy              =   -2509.40695823 Ry
     estimated scf accuracy    <       0.00002201 Ry

     iteration #  8     ecut=    50.00 Ry     beta= 0.30
     Davidson diagonalization with overlap
     ethr =  9.30E-09,  avg # of iterations =  3.0

     total cpu time spent up to now is     2320.7 secs

     total energy              =   -2509.40696665 Ry
     estimated scf accuracy    <       0.00001574 Ry

     iteration #  9     ecut=    50.00 Ry     beta= 0.30
     Davidson diagonalization with overlap
     ethr =  9.30E-09,  avg # of iterations =  1.6

     total cpu time spent up to now is     2343.9 secs

     total energy              =   -2509.40696630 Ry
     estimated scf accuracy    <       0.00000374 Ry

     iteration # 10     ecut=    50.00 Ry     beta= 0.30
     Davidson diagonalization with overlap
     ethr =  2.34E-09,  avg # of iterations =  3.9

     total cpu time spent up to now is     2375.9 secs

     total energy              =   -2509.40696722 Ry
     estimated scf accuracy    <       0.00000358 Ry

     iteration # 11     ecut=    50.00 Ry     beta= 0.30
     Davidson diagonalization with overlap
     ethr =  2.24E-09,  avg # of iterations =  2.0

     total cpu time spent up to now is     2399.7 secs

     total energy              =   -2509.40696731 Ry
     estimated scf accuracy    <       0.00000065 Ry

     iteration # 12     ecut=    50.00 Ry     beta= 0.30
     Davidson diagonalization with overlap
     ethr =  4.05E-10,  avg # of iterations =  3.6

     total cpu time spent up to now is     2428.8 secs

     total energy              =   -2509.40696745 Ry
     estimated scf accuracy    <       0.00000092 Ry

     iteration # 13     ecut=    50.00 Ry     beta= 0.30
     Davidson diagonalization with overlap
     ethr =  4.05E-10,  avg # of iterations =  2.0

     total cpu time spent up to now is     2454.2 secs

     total energy              =   -2509.40696743 Ry
     estimated scf accuracy    <       0.00000020 Ry

     iteration # 14     ecut=    50.00 Ry     beta= 0.30
     Davidson diagonalization with overlap
     ethr =  1.26E-10,  avg # of iterations =  2.4

     total cpu time spent up to now is     2483.9 secs

     total energy              =   -2509.40696748 Ry
     estimated scf accuracy    <       0.00000003 Ry

     iteration # 15     ecut=    50.00 Ry     beta= 0.30
     Davidson diagonalization with overlap
     ethr =  1.57E-11,  avg # of iterations =  4.1

     total cpu time spent up to now is     2518.6 secs

     total energy              =   -2509.40696747 Ry
     estimated scf accuracy    <       0.00000005 Ry

     iteration # 16     ecut=    50.00 Ry     beta= 0.30
     Davidson diagonalization with overlap
     ethr =  1.57E-11,  avg # of iterations =  2.9

     total cpu time spent up to now is     2547.6 secs

     End of self-consistent calculation

          k = 0.0000 0.0000 0.0000 ( 14081 PWs)   bands (ev):

   -19.4415 -19.3799 -19.3655 -19.3578 -17.1650 -17.1191 -17.1088 -17.0848
   -13.0776 -13.0539 -13.0470 -13.0006 -12.9878 -12.9683 -12.9553 -12.9292
   -12.9238 -12.9207 -12.9095 -12.9049  -5.0715  -4.8444  -4.7499  -4.7145
    -4.6871  -4.6578  -4.6418  -4.5836  -4.5523  -4.5257  -4.5242  -4.5121
    -3.1734  -2.7138  -2.6183  -2.1997  -0.6018  -0.5035  -0.4019  -0.3795
    -0.2686  -0.2163  -0.1492  -0.0593  -0.0182   0.0172   0.0690   0.1409
     2.3597   2.4590   2.4939   2.5086   2.6388   2.6593   2.7368   2.7946
     2.8247   2.8704   2.9148   3.1094   3.1388   3.1893   3.3905   3.4455
     3.6041   3.7004   3.7876   3.8714   4.4539   4.8082   4.9253   4.9283
     4.9866   5.0616   5.1254   5.1557   5.1566   5.2100   5.2205   5.2580
    11.3406  11.9603  12.0915  12.2881  12.3634  12.4318  12.6543  12.7278
    12.7733  12.8321  12.9922  13.1324  13.2250  13.3539  13.5963  13.6961

          k = 0.0000 0.0000 0.2029 ( 14156 PWs)   bands (ev):

   -19.4275 -19.3976 -19.3624 -19.3577 -17.1539 -17.1318 -17.1013 -17.0902
   -13.0666 -13.0517 -13.0348 -12.9930 -12.9874 -12.9769 -12.9759 -12.9466
   -12.9267 -12.9223 -12.9001 -12.8973  -4.9924  -4.8004  -4.7789  -4.7137
    -4.6814  -4.6752  -4.6440  -4.6096  -4.5943  -4.5665  -4.5445  -4.5356
    -2.9005  -2.7040  -2.6529  -2.4238  -0.4793  -0.4756  -0.4147  -0.3708
    -0.3339  -0.1909  -0.1735  -0.1077   0.0110   0.0330   0.0533   0.0715
     2.4499   2.4731   2.4980   2.5936   2.6959   2.6962   2.7478   2.7718
     2.8492   2.8835   2.9970   3.0909   3.1068   3.1392   3.2720   3.4393
     3.5345   3.7012   3.7043   3.8243   4.5915   4.8485   4.8611   4.9453
     4.9503   5.0318   5.0558   5.1317   5.2005   5.2250   5.2476   5.2479
    11.7123  12.0307  12.0582  12.2228  12.4044  12.4656  12.5233  12.6238
    12.6253  12.6715  12.9041  13.0431  13.2468  13.3191  13.7377  13.7489

          k = 0.0000 0.2516 0.0000 ( 14140 PWs)   bands (ev):

   -19.4219 -19.3850 -19.3721 -19.3599 -17.1648 -17.1421 -17.1028 -17.0904
   -13.0804 -13.0768 -12.9894 -12.9884 -12.9717 -12.9630 -12.9486 -12.9318
   -12.9269 -12.9260 -12.9165 -12.9127  -5.0406  -4.8941  -4.8201  -4.7795
    -4.6973  -4.6705  -4.6603  -4.6429  -4.6271  -4.5565  -4.5475  -4.5283
    -2.8072  -2.5795  -2.5705  -2.3037  -0.5270  -0.4702  -0.3618  -0.3102
    -0.2792  -0.2444  -0.1588  -0.0901  -0.0695  -0.0122   0.0219   0.1251
     2.3943   2.4188   2.4708   2.5206   2.6323   2.7247   2.7980   2.8425
     2.8977   2.9111   2.9816   3.0736   3.0834   3.1191   3.3692   3.4360
     3.4677   3.6308   3.6781   3.8166   4.4917   4.7568   4.8966   4.9789
     4.9794   5.0992   5.1411   5.1519   5.1543   5.1766   5.2326   5.3169
    11.8615  11.8991  12.1515  12.2854  12.4101  12.5679  12.6002  12.6030
    13.0395  13.0788  13.1993  13.2258  13.3182  13.3775  13.5547  13.7676

          k = 0.0000 0.2516 0.2029 ( 14128 PWs)   bands (ev):

   -19.4107 -19.3886 -19.3751 -19.3648 -17.1590 -17.1478 -17.0995 -17.0933
   -13.0666 -13.0616 -12.9919 -12.9842 -12.9763 -12.9751 -12.9543 -12.9439
   -12.9315 -12.9282 -12.9129 -12.9066  -4.9849  -4.8672  -4.8425  -4.8164
    -4.6950  -4.6609  -4.6599  -4.6278  -4.6143  -4.5859  -4.5614  -4.5610
    -2.6856  -2.5935  -2.5776  -2.4290  -0.4371  -0.3996  -0.3428  -0.3260
    -0.3020  -0.2388  -0.1442  -0.0812  -0.0716  -0.0633  -0.0132   0.0496
     2.4611   2.4834   2.5191   2.5869   2.6354   2.7158   2.7489   2.8439
     2.8680   2.9302   2.9407   3.0539   3.0999   3.1179   3.2812   3.3543
     3.5092   3.6263   3.7148   3.7843   4.5740   4.7130   4.9280   4.9959
     5.0174   5.0336   5.1122   5.1168   5.1422   5.1569   5.2743   5.3081
    11.9325  12.0237  12.2172  12.3522  12.4790  12.5580  12.5994  12.6548
    12.8859  12.9370  13.0976  13.1852  13.3041  13.3843  13.4724  13.6064

          k = 0.3306 0.0000 0.0000 ( 14113 PWs)   bands (ev):

   -19.4111 -19.3727 -19.3719 -19.3608 -17.1402 -17.1363 -17.1357 -17.0959
   -13.0898 -13.0497 -13.0217 -13.0181 -12.9965 -12.9827 -12.9565 -12.9515
   -12.9438 -12.9251 -12.9191 -12.9024  -4.8376  -4.7748  -4.7151  -4.6638
    -4.6602  -4.6572  -4.6340  -4.6221  -4.6166  -4.5993  -4.5747  -4.5465
    -2.7665  -2.7194  -2.4897  -2.4434  -0.6363  -0.4294  -0.3645  -0.3197
    -0.2841  -0.2577  -0.1235  -0.1235  -0.0583  -0.0237   0.0154   0.0724
     2.3942   2.4061   2.4507   2.7048   2.7453   2.7623   2.8230   2.8470
     2.8883   2.9146   2.9959   3.0822   3.1109   3.1847   3.2602   3.3770
     3.4044   3.5354   3.6018   3.7115   4.6470   4.6961   4.8006   4.8160
     4.9518   4.9605   4.9792   5.0050   5.1033   5.1836   5.2124   5.2197
    12.1406  12.2512  12.2725  12.5496  12.6178  12.6838  12.7302  12.7564
    12.8260  12.9345  12.9435  13.0313  13.1609  13.4087  13.4205  13.5662

          k = 0.3306 0.0000 0.2029 ( 14107 PWs)   bands (ev):

   -19.4020 -19.3828 -19.3692 -19.3628 -17.1400 -17.1376 -17.1251 -17.1056
   -13.0675 -13.0325 -13.0269 -13.0122 -13.0110 -12.9857 -12.9733 -12.9621
   -12.9395 -12.9333 -12.9116 -12.9014  -4.8520  -4.8264  -4.7111  -4.6906
    -4.6613  -4.6585  -4.6173  -4.6101  -4.5854  -4.5776  -4.5709  -4.5372
    -2.6907  -2.6652  -2.5481  -2.5269  -0.5971  -0.4962  -0.3607  -0.3315
    -0.2666  -0.1769  -0.1142  -0.0790  -0.0766  -0.0537  -0.0186   0.0148
     2.4244   2.4275   2.6127   2.7245   2.7703   2.8004   2.8033   2.8731
     2.8816   2.9517   2.9853   3.0329   3.0538   3.1476   3.1584   3.2008
     3.5100   3.5859   3.5994   3.6481   4.7001   4.7602   4.7958   4.8144
     4.9281   4.9333   4.9686   4.9968   5.0828   5.1306   5.2376   5.2462
    12.1446  12.2879  12.3150  12.3569  12.4507  12.6304  12.6379  12.7931
    12.9889  13.0742  13.1764  13.2082  13.2409  13.3326  13.4570  13.5710

          k = 0.3306 0.2516 0.0000 ( 14101 PWs)   bands (ev):

   -19.3995 -19.3801 -19.3680 -19.3626 -17.1535 -17.1504 -17.1210 -17.1061
   -13.0829 -13.0636 -13.0342 -13.0211 -12.9927 -12.9692 -12.9606 -12.9497
   -12.9367 -12.9135 -12.8981 -12.8868  -4.9583  -4.9080  -4.7572  -4.6971
    -4.6571  -4.6571  -4.6357  -4.6320  -4.6191  -4.5892  -4.5628  -4.5441
    -2.6642  -2.5452  -2.4671  -2.3198  -0.5260  -0.4367  -0.4214  -0.3552
    -0.3037  -0.2663  -0.2183  -0.1531  -0.0347   0.0112   0.0428   0.0817
     2.3813   2.3932   2.4845   2.6596   2.7697   2.7748   2.8185   2.8685
     2.9288   2.9413   2.9880   3.0031   3.0694   3.1176   3.3360   3.3863
     3.3970   3.4481   3.5813   3.6074   4.6575   4.6727   4.7788   4.8125
     4.9629   4.9705   4.9824   5.0962   5.1164   5.1718   5.2342   5.2534
    12.2718  12.3502  12.4800  12.5793  12.6535  12.7257  12.8133  12.8844
    12.9284  13.0245  13.0540  13.2134  13.3704  13.3777  13.4166  13.5059

          k = 0.3306 0.2516 0.2029 ( 14105 PWs)   bands (ev):

   -19.3922 -19.3786 -19.3732 -19.3662 -17.1493 -17.1476 -17.1213 -17.1131
   -13.0616 -13.0448 -13.0249 -13.0147 -13.0012 -12.9864 -12.9728 -12.9677
   -12.9293 -12.9203 -12.8959 -12.8898  -4.9235  -4.8749  -4.8240  -4.7821
    -4.6570  -4.6392  -4.6128  -4.6079  -4.5897  -4.5858  -4.5715  -4.5530
    -2.5808  -2.5272  -2.4882  -2.4071  -0.5149  -0.4527  -0.3828  -0.3740
    -0.2643  -0.2253  -0.1695  -0.1136  -0.0706  -0.0295  -0.0125   0.0203
     2.4080   2.4346   2.4954   2.6309   2.7279   2.7499   2.8701   2.8892
     2.9314   2.9459   2.9939   3.0065   3.0984   3.1435   3.2672   3.2759
     3.4586   3.5219   3.5579   3.5724   4.6809   4.7390   4.7742   4.8272
     4.8967   4.9284   5.0171   5.0692   5.1359   5.1810   5.2041   5.2315
    12.2986  12.3449  12.4578  12.5498  12.5982  12.6168  12.8275  12.8454
    12.9712  13.0331  13.2056  13.2396  13.2786  13.3474  13.5432  13.5836

     the Fermi energy is     9.7185 ev

!    total energy              =   -2509.40696747 Ry
     estimated scf accuracy    <          2.8E-09 Ry
     smearing contrib. (-TS)   =      -0.00000000 Ry
     internal energy E=F+TS    =   -2509.40696747 Ry

     The total energy is F=E-TS. E is the sum of the following terms:
     one-electron contribution =    -259.13747464 Ry
     hartree contribution      =     224.90818971 Ry
     xc contribution           =    -236.17810434 Ry
     ewald contribution        =    -586.91653437 Ry
     one-center paw contrib.   =   -1652.08304382 Ry

     convergence has been achieved in  16 iterations

     Forces acting on atoms (cartesian axes, Ry/au):

     atom    1 type  1   force =    -0.00000000   -0.00019759    0.00060790
     atom    2 type  1   force =     0.00000000    0.00019759   -0.00060790
     atom    3 type  1   force =     0.00000000   -0.00019759   -0.00060790
     atom    4 type  1   force =     0.00000000    0.00019759    0.00060790
     atom    5 type  2   force =     0.00000000    0.00525176   -0.00448726
     atom    6 type  2   force =     0.00000000   -0.00525176    0.00448726
     atom    7 type  2   force =     0.00000000    0.00525176    0.00448726
     atom    8 type  2   force =    -0.00000000   -0.00525176   -0.00448726
     atom    9 type  3   force =    -0.00073868    0.00087598   -0.00040706
     atom   10 type  3   force =    -0.00073868   -0.00087598    0.00040706
     atom   11 type  3   force =     0.00073868    0.00087598    0.00040706
     atom   12 type  3   force =     0.00073868   -0.00087598   -0.00040706
     atom   13 type  3   force =     0.00073868   -0.00087598    0.00040706
     atom   14 type  3   force =     0.00073868    0.00087598   -0.00040706
     atom   15 type  3   force =    -0.00073868   -0.00087598   -0.00040706
     atom   16 type  3   force =    -0.00073868    0.00087598    0.00040706
     atom   17 type  3   force =    -0.00000000   -0.00235767    0.00433317
[...]

     total cpu time spent up to now is    12826.1 secs

     total energy              =   -2509.37727636 Ry
     estimated scf accuracy    <       0.13008389 Ry

     iteration #  4     ecut=    50.00 Ry     beta= 0.30
     Davidson diagonalization with overlap
     ethr =  8.13E-05,  avg # of iterations =  4.2

     total cpu time spent up to now is    12859.8 secs

     total energy              =   -2509.40812735 Ry
     estimated scf accuracy    <       0.04188909 Ry

     iteration #  5     ecut=    50.00 Ry     beta= 0.30
     Davidson diagonalization with overlap
     ethr =  2.62E-05,  avg # of iterations =  7.1

     total cpu time spent up to now is    12887.2 secs

     total energy              =   -2509.40225472 Ry
     estimated scf accuracy    <       0.01590350 Ry

     iteration #  6     ecut=    50.00 Ry     beta= 0.30
     Davidson diagonalization with overlap
     ethr =  9.94E-06,  avg # of iterations =  8.4

     total cpu time spent up to now is    12930.7 secs

     total energy              =   -2509.39750508 Ry
     estimated scf accuracy    <       0.04826407 Ry

     iteration #  7     ecut=    50.00 Ry     beta= 0.30
     Davidson diagonalization with overlap
     ethr =  9.94E-06,  avg # of iterations =  3.1

     total cpu time spent up to now is    12968.1 secs

     total energy              =   -2509.40795265 Ry
     estimated scf accuracy    <       0.00071308 Ry

     iteration #  8     ecut=    50.00 Ry     beta= 0.30
     Davidson diagonalization with overlap
     ethr =  4.46E-07,  avg # of iterations =  5.1

     total cpu time spent up to now is    13001.6 secs

     total energy              =   -2509.40833155 Ry
     estimated scf accuracy    <       0.00023064 Ry

     iteration #  9     ecut=    50.00 Ry     beta= 0.30
     Davidson diagonalization with overlap
     ethr =  1.44E-07,  avg # of iterations =  3.8

     total cpu time spent up to now is    13031.9 secs

     total energy              =   -2509.40815812 Ry
     estimated scf accuracy    <       0.00043035 Ry

     iteration # 10     ecut=    50.00 Ry     beta= 0.30
     Davidson diagonalization with overlap
     ethr =  1.44E-07,  avg # of iterations =  2.9

     total cpu time spent up to now is    13063.5 secs

     total energy              =   -2509.40823956 Ry
     estimated scf accuracy    <       0.00002011 Ry

     iteration # 11     ecut=    50.00 Ry     beta= 0.30
     Davidson diagonalization with overlap
     ethr =  1.26E-08,  avg # of iterations =  4.0

     total cpu time spent up to now is    13093.3 secs

     total energy              =   -2509.40824092 Ry
     estimated scf accuracy    <       0.00002989 Ry

     iteration # 12     ecut=    50.00 Ry     beta= 0.30
     Davidson diagonalization with overlap
     ethr =  1.26E-08,  avg # of iterations =  2.0

     total cpu time spent up to now is    13118.4 secs

     total energy              =   -2509.40823673 Ry
     estimated scf accuracy    <       0.00001129 Ry

     iteration # 13     ecut=    50.00 Ry     beta= 0.30
     Davidson diagonalization with overlap
     ethr =  7.06E-09,  avg # of iterations =  4.0

     total cpu time spent up to now is    13152.2 secs

     total energy              =   -2509.40824263 Ry
     estimated scf accuracy    <       0.00007931 Ry

     iteration # 14     ecut=    50.00 Ry     beta= 0.30
     Davidson diagonalization with overlap
     ethr =  7.06E-09,  avg # of iterations =  2.0

     total cpu time spent up to now is    13178.1 secs

     total energy              =   -2509.40824246 Ry
     estimated scf accuracy    <       0.00000340 Ry

     iteration # 15     ecut=    50.00 Ry     beta= 0.30
     Davidson diagonalization with overlap
     ethr =  2.13E-09,  avg # of iterations =  2.0

     total cpu time spent up to now is    13204.6 secs

     total energy              =   -2509.40824278 Ry
     estimated scf accuracy    <       0.00000147 Ry

     iteration # 16     ecut=    50.00 Ry     beta= 0.30
     Davidson diagonalization with overlap
     ethr =  9.21E-10,  avg # of iterations =  3.0

     total cpu time spent up to now is    13231.2 secs

     total energy              =   -2509.40824289 Ry
     estimated scf accuracy    <       0.00000010 Ry

     iteration # 17     ecut=    50.00 Ry     beta= 0.30
     Davidson diagonalization with overlap
     ethr =  6.54E-11,  avg # of iterations =  4.0

     total cpu time spent up to now is    13261.2 secs

     total energy              =   -2509.40824291 Ry
     estimated scf accuracy    <       0.00000013 Ry

     iteration # 18     ecut=    50.00 Ry     beta= 0.30
     Davidson diagonalization with overlap
     ethr =  6.54E-11,  avg # of iterations =  2.0

     total cpu time spent up to now is    13287.0 secs

     total energy              =   -2509.40824291 Ry
     estimated scf accuracy    <       0.00000014 Ry

     iteration # 19     ecut=    50.00 Ry     beta= 0.30
     Davidson diagonalization with overlap
     ethr =  6.54E-11,  avg # of iterations =  2.0

     total cpu time spent up to now is    13312.6 secs

     total energy              =   -2509.40824292 Ry
     estimated scf accuracy    <       0.00000025 Ry

     iteration # 20     ecut=    50.00 Ry     beta= 0.30
     Davidson diagonalization with overlap
     ethr =  6.54E-11,  avg # of iterations =  2.0

     total cpu time spent up to now is    13337.6 secs

     total energy              =   -2509.40824292 Ry
     estimated scf accuracy    <       0.00000002 Ry

     iteration # 21     ecut=    50.00 Ry     beta= 0.30
     Davidson diagonalization with overlap
     ethr =  1.33E-11,  avg # of iterations =  1.0

     total cpu time spent up to now is    13358.9 secs

     total energy              =   -2509.40824292 Ry
     estimated scf accuracy    <          1.5E-09 Ry

     iteration # 22     ecut=    50.00 Ry     beta= 0.30
     Davidson diagonalization with overlap
     ethr =  9.54E-13,  avg # of iterations =  2.0

     total cpu time spent up to now is    13386.8 secs

     total energy              =   -2509.40824292 Ry
     estimated scf accuracy    <          5.0E-10 Ry

     iteration # 23     ecut=    50.00 Ry     beta= 0.30
     Davidson diagonalization with overlap
     ethr =  3.11E-13,  avg # of iterations =  2.0

     total cpu time spent up to now is    13414.6 secs

     total energy              =   -2509.40824292 Ry
     estimated scf accuracy    <          1.9E-10 Ry

     iteration # 24     ecut=    50.00 Ry     beta= 0.30
     Davidson diagonalization with overlap
     ethr =  1.20E-13,  avg # of iterations =  2.0

     total cpu time spent up to now is    13439.8 secs

     End of self-consistent calculation

          k = 0.0000 0.0000 0.0000 ( 14691 PWs)   bands (ev):

   -19.6418 -19.5874 -19.5743 -19.5671 -17.2823 -17.2453 -17.2301 -17.2055
   -13.2241 -13.1837 -13.1832 -13.1205 -13.0999 -13.0951 -13.0686 -13.0522
   -13.0389 -13.0318 -13.0270 -13.0235  -5.2397  -5.0192  -4.9376  -4.9036
    -4.8760  -4.8486  -4.8350  -4.7791  -4.7533  -4.7277  -4.7219  -4.7138
    -3.2902  -2.8516  -2.7567  -2.3656  -0.7082  -0.6321  -0.5198  -0.5070
    -0.3939  -0.3472  -0.2770  -0.1904  -0.1599  -0.1224  -0.0755   0.0026
     2.2400   2.3365   2.3803   2.3985   2.5301   2.5378   2.5952   2.6622
     2.6908   2.7520   2.7819   2.9725   2.9966   3.0509   3.2561   3.3067
     3.4610   3.5534   3.6372   3.7162   4.3405   4.6823   4.8062   4.8076
     4.8618   4.9366   4.9864   5.0161   5.0175   5.0687   5.0867   5.1179
    11.1364  11.7480  11.9031  12.0716  12.1805  12.2542  12.4616  12.5347
    12.5869  12.6680  12.7722  12.9619  13.0256  13.1528  13.5350  13.7349

          k = 0.0000 0.0000 0.2026 ( 14664 PWs)   bands (ev):

   -19.6294 -19.6029 -19.5715 -19.5672 -17.2732 -17.2552 -17.2230 -17.2112
   -13.2113 -13.1910 -13.1635 -13.1192 -13.1110 -13.0925 -13.0837 -13.0769
   -13.0294 -13.0251 -13.0231 -13.0225  -5.1636  -4.9849  -4.9583  -4.8988
    -4.8704  -4.8671  -4.8312  -4.8049  -4.7921  -4.7645  -4.7442  -4.7376
    -3.0348  -2.8409  -2.7900  -2.5801  -0.6044  -0.5904  -0.5430  -0.4933
    -0.4569  -0.3164  -0.3011  -0.2349  -0.1312  -0.1076  -0.0903  -0.0681
     2.3329   2.3523   2.3815   2.4667   2.5721   2.5736   2.6306   2.6472
     2.7270   2.7454   2.8625   2.9587   2.9663   3.0026   3.1368   3.2978
     3.3933   3.5525   3.5573   3.6707   4.4739   4.7225   4.7366   4.8211
     4.8249   4.9054   4.9216   4.9968   5.0620   5.0864   5.1078   5.1123
    11.5112  11.8197  11.8669  12.0316  12.2124  12.2872  12.3124  12.4216
    12.4273  12.4884  12.6955  12.8549  13.0722  13.1314  13.5245  13.7753

          k = 0.0000 0.2507 0.0000 ( 14657 PWs)   bands (ev):

   -19.6244 -19.5916 -19.5804 -19.5693 -17.2826 -17.2640 -17.2245 -17.2122
   -13.2262 -13.2190 -13.1222 -13.0972 -13.0939 -13.0890 -13.0717 -13.0471
   -13.0380 -13.0375 -13.0345 -13.0287  -5.2091  -5.0650  -5.0003  -4.9647
    -4.8873  -4.8612  -4.8524  -4.8330  -4.8207  -4.7526  -4.7483  -4.7294
    -2.9426  -2.7222  -2.7199  -2.4642  -0.6410  -0.5874  -0.4952  -0.4367
    -0.4118  -0.3728  -0.2888  -0.2293  -0.2098  -0.1452  -0.1098  -0.0119
     2.2799   2.3093   2.3566   2.4045   2.5109   2.5972   2.6669   2.7114
     2.7631   2.7769   2.8499   2.9364   2.9480   2.9896   3.2297   3.2945
     3.3274   3.4862   3.5312   3.6641   4.3776   4.6358   4.7666   4.8557
     4.8574   4.9603   5.0093   5.0149   5.0168   5.0377   5.0997   5.1774
    11.6597  11.6991  11.9464  12.1041  12.2137  12.3717  12.3916  12.4062
    12.8506  12.9065  12.9761  13.0471  13.1239  13.1601  13.3540  13.5713

          k = 0.0000 0.2507 0.2026 ( 14657 PWs)   bands (ev):

   -19.6145 -19.5948 -19.5830 -19.5737 -17.2780 -17.2687 -17.2212 -17.2151
   -13.2116 -13.2051 -13.1318 -13.1185 -13.0841 -13.0839 -13.0750 -13.0660
   -13.0349 -13.0341 -13.0309 -13.0300  -5.1563  -5.0439  -5.0196  -4.9964
    -4.8838  -4.8534  -4.8490  -4.8220  -4.8083  -4.7838  -4.7602  -4.7576
    -2.8281  -2.7379  -2.7236  -2.5834  -0.5546  -0.5208  -0.4761  -0.4497
    -0.4351  -0.3664  -0.2729  -0.2207  -0.2117  -0.1902  -0.1493  -0.0873
     2.3447   2.3656   2.3982   2.4684   2.5111   2.5945   2.6230   2.7194
     2.7391   2.7979   2.8130   2.9183   2.9704   2.9786   3.1408   3.2144
     3.3658   3.4796   3.5659   3.6327   4.4589   4.5948   4.7977   4.8699
     4.8850   4.9053   4.9781   4.9791   5.0072   5.0209   5.1385   5.1696
    11.7377  11.8287  12.0168  12.1667  12.2804  12.3531  12.3889  12.4560
    12.6835  12.7284  12.9133  12.9923  13.1194  13.1927  13.2520  13.3840

          k = 0.3278 0.0000 0.0000 ( 14670 PWs)   bands (ev):

   -19.6153 -19.5813 -19.5802 -19.5701 -17.2622 -17.2555 -17.2551 -17.2169
   -13.2262 -13.1857 -13.1571 -13.1332 -13.1059 -13.1013 -13.0901 -13.0597
   -13.0535 -13.0408 -13.0374 -13.0269  -5.0221  -4.9605  -4.9031  -4.8538
    -4.8523  -4.8510  -4.8272  -4.8182  -4.8100  -4.7962  -4.7685  -4.7419
    -2.9106  -2.8556  -2.6435  -2.5967  -0.7441  -0.5570  -0.4879  -0.4446
    -0.4092  -0.3864  -0.2537  -0.2533  -0.1963  -0.1571  -0.1241  -0.0669
     2.2751   2.2888   2.3312   2.5733   2.6128   2.6294   2.6941   2.7246
     2.7581   2.7797   2.8744   2.9508   2.9751   3.0503   3.1328   3.2426
     3.2641   3.3904   3.4606   3.5627   4.5320   4.5683   4.6865   4.7003
     4.8297   4.8356   4.8466   4.8763   4.9673   5.0533   5.0795   5.0819
    11.9583  12.0451  12.0668  12.3602  12.4016  12.4948  12.5434  12.5535
    12.6106  12.7301  12.7489  12.8574  12.9702  13.1922  13.2054  13.3528

          k = 0.3278 0.0000 0.2026 ( 14690 PWs)   bands (ev):

   -19.6071 -19.5899 -19.5780 -19.5721 -17.2610 -17.2574 -17.2452 -17.2263
   -13.2052 -13.1686 -13.1649 -13.1315 -13.1266 -13.1118 -13.0890 -13.0648
   -13.0516 -13.0479 -13.0327 -13.0233  -5.0338  -5.0081  -4.9008  -4.8815
    -4.8531  -4.8484  -4.8110  -4.8047  -4.7835  -4.7730  -4.7685  -4.7361
    -2.8359  -2.8053  -2.6972  -2.6769  -0.7087  -0.6170  -0.4839  -0.4563
    -0.3949  -0.3089  -0.2461  -0.2146  -0.2077  -0.1894  -0.1533  -0.1241
     2.3078   2.3097   2.4874   2.5922   2.6432   2.6694   2.6770   2.7392
     2.7525   2.8238   2.8503   2.9041   2.9237   3.0186   3.0252   3.0691
     3.3669   3.4443   3.4584   3.5018   4.5836   4.6347   4.6799   4.6942
     4.8008   4.8089   4.8429   4.8705   4.9478   4.9990   5.0993   5.1123
    11.9566  12.0819  12.1246  12.1686  12.2567  12.4269  12.4427  12.5919
    12.7894  12.8740  12.9540  12.9949  13.0423  13.1195  13.2530  13.3640

          k = 0.3278 0.2507 0.0000 ( 14658 PWs)   bands (ev):

   -19.6050 -19.5879 -19.5767 -19.5718 -17.2723 -17.2708 -17.2407 -17.2264
   -13.2231 -13.2082 -13.1510 -13.1383 -13.1054 -13.0830 -13.0803 -13.0746
   -13.0526 -13.0323 -13.0166 -13.0079  -5.1345  -5.0848  -4.9397  -4.8830
    -4.8506  -4.8499  -4.8305  -4.8261  -4.8134  -4.7835  -4.7611  -4.7437
    -2.8086  -2.6972  -2.6227  -2.4798  -0.6390  -0.5577  -0.5422  -0.4796
    -0.4331  -0.3953  -0.3460  -0.2849  -0.1737  -0.1260  -0.0916  -0.0544
     2.2651   2.2783   2.3677   2.5334   2.6385   2.6502   2.6846   2.7385
     2.7940   2.8073   2.8534   2.8651   2.9408   2.9882   3.2040   3.2459
     3.2605   3.3113   3.4405   3.4659   4.5381   4.5543   4.6596   4.6893
     4.8378   4.8449   4.8573   4.9644   4.9866   5.0410   5.0969   5.1142
    12.0684  12.1596  12.2744  12.3834  12.4507  12.5327  12.6047  12.6858
    12.7293  12.8120  12.8426  13.0246  13.1715  13.1728  13.2206  13.2992

          k = 0.3278 0.2507 0.2026 ( 14669 PWs)   bands (ev):

   -19.5985 -19.5863 -19.5816 -19.5752 -17.2685 -17.2673 -17.2414 -17.2334
   -13.2027 -13.1903 -13.1527 -13.1411 -13.1082 -13.1028 -13.0868 -13.0801
   -13.0466 -13.0370 -13.0151 -13.0101  -5.1009  -5.0538  -5.0047  -4.9656
    -4.8478  -4.8310  -4.8063  -4.8043  -4.7857  -4.7819  -4.7696  -4.7524
    -2.7289  -2.6797  -2.6425  -2.5630  -0.6307  -0.5735  -0.5057  -0.4979
    -0.3918  -0.3558  -0.3003  -0.2477  -0.2053  -0.1658  -0.1456  -0.1142
     2.2915   2.3192   2.3752   2.5077   2.6012   2.6237   2.7364   2.7561
     2.7978   2.8115   2.8640   2.8752   2.9637   3.0112   3.1324   3.1412
     3.3181   3.3825   3.4172   3.4323   4.5639   4.6213   4.6524   4.7045
     4.7705   4.8045   4.8900   4.9397   5.0030   5.0456   5.0698   5.0945
    12.1002  12.1455  12.2604  12.3585  12.3997  12.4216  12.6198  12.6435
    12.7660  12.8254  12.9991  13.0325  13.0638  13.1501  13.3383  13.3726

     the Fermi energy is     5.4890 ev

!    total energy              =   -2509.40824292 Ry
     estimated scf accuracy    <          2.5E-11 Ry
     smearing contrib. (-TS)   =      -0.00000000 Ry
     internal energy E=F+TS    =   -2509.40824292 Ry

     The total energy is F=E-TS. E is the sum of the following terms:
     one-electron contribution =    -266.70636640 Ry
     hartree contribution      =     227.80965971 Ry
     xc contribution           =    -236.11015371 Ry
     ewald contribution        =    -582.32044842 Ry
     one-center paw contrib.   =   -1652.08093409 Ry

     convergence has been achieved in  24 iterations

     Forces acting on atoms (cartesian axes, Ry/au):

     atom    1 type  1   force =     0.00000000   -0.00001816    0.00008392
     atom    2 type  1   force =     0.00000000    0.00001816   -0.00008392
     atom    3 type  1   force =     0.00000000   -0.00001816   -0.00008392
     atom    4 type  1   force =     0.00000000    0.00001816    0.00008392
     atom    5 type  2   force =     0.00000000    0.00003571    0.00002429
     atom    6 type  2   force =    -0.00000000   -0.00003571   -0.00002429
     atom    7 type  2   force =     0.00000000    0.00003571   -0.00002429
     atom    8 type  2   force =     0.00000000   -0.00003571    0.00002429
     atom    9 type  3   force =    -0.00005690   -0.00005838    0.00001100
     atom   10 type  3   force =    -0.00005690    0.00005838   -0.00001100
     atom   11 type  3   force =     0.00005690   -0.00005838   -0.00001100
     atom   12 type  3   force =     0.00005690    0.00005838    0.00001100
     atom   13 type  3   force =     0.00005690    0.00005838   -0.00001100
     atom   14 type  3   force =     0.00005690   -0.00005838    0.00001100
     atom   15 type  3   force =    -0.00005690    0.00005838    0.00001100
     atom   16 type  3   force =    -0.00005690   -0.00005838   -0.00001100
     atom   17 type  3   force =     0.00000000   -0.00000958   -0.00000374
     atom   18 type  3   force =     0.00000000    0.00000958    0.00000374
     atom   19 type  3   force =     0.00000000   -0.00000958    0.00000374
     atom   20 type  3   force =    -0.00000000    0.00000958   -0.00000374
     atom   21 type  3   force =     0.00000000   -0.00002210    0.00003298
     atom   22 type  3   force =     0.00000000    0.00002210   -0.00003298
     atom   23 type  3   force =     0.00000000   -0.00002210   -0.00003298
     atom   24 type  3   force =     0.00000000    0.00002210    0.00003298

     Total force =     0.000313     Total SCF correction =     0.000017


     Computing stress (Cartesian axis) and pressure

          total   stress  (Ry/bohr**3)                   (kbar)     P=        0.13
   0.00000104   0.00000000   0.00000000            0.15        0.00        0.00
   0.00000000   0.00000056   0.00000000            0.00        0.08        0.00
   0.00000000   0.00000000   0.00000105            0.00        0.00        0.15


     Writing output data file ./out/BaO4S.save/

     init_run     :     46.71s CPU     47.12s WALL (       2 calls)
     electrons    :  11861.72s CPU  11978.52s WALL (      21 calls)
     update_pot   :    357.07s CPU    357.20s WALL (      19 calls)
     forces       :    363.03s CPU    364.87s WALL (      21 calls)
     stress       :    677.37s CPU    682.22s WALL (      21 calls)

     Called by init_run:
     wfcinit      :     14.85s CPU     14.99s WALL (       2 calls)
     potinit      :     11.28s CPU     11.36s WALL (       2 calls)
     hinit0       :     18.87s CPU     18.90s WALL (       2 calls)

     Called by electrons:
     c_bands      :   9925.96s CPU   9963.25s WALL (     438 calls)
     sum_band     :   1194.58s CPU   1238.54s WALL (     438 calls)
     v_of_rho     :     74.96s CPU     76.12s WALL (     457 calls)
     newd         :    293.59s CPU    328.77s WALL (     457 calls)
     PAW_pot      :    400.24s CPU    400.39s WALL (     476 calls)
     mix_rho      :     14.07s CPU     14.33s WALL (     438 calls)

     Called by c_bands:
     init_us_2    :     26.17s CPU     26.21s WALL (    3756 calls)
     cegterg      :   9659.82s CPU   9696.93s WALL (    1756 calls)

     Called by *egterg:
     cdiaghg      :    266.24s CPU    267.78s WALL (    6727 calls)
     h_psi        :   3966.54s CPU   3999.94s WALL (    6823 calls)
     s_psi        :   1617.68s CPU   1617.93s WALL (    6823 calls)
     g_psi        :      7.73s CPU      7.74s WALL (    5059 calls)

     Called by h_psi:
     h_psi:calbec :   1579.69s CPU   1580.85s WALL (    6823 calls)
     vloc_psi     :    757.18s CPU    789.11s WALL (    6823 calls)
     add_vuspsi   :   1623.42s CPU   1623.74s WALL (    6823 calls)

     General routines
     calbec       :   2437.21s CPU   2438.95s WALL (    9071 calls)
     fft          :     61.48s CPU     63.53s WALL (    6445 calls)
     ffts         :      2.00s CPU      2.07s WALL (     895 calls)
     fftw         :    758.99s CPU    790.69s WALL (  965746 calls)
     interpolate  :      5.79s CPU      5.97s WALL (     457 calls)

     Parallel routines
     fft_scatt_xy :    132.19s CPU    138.37s WALL (  973086 calls)
     fft_scatt_yz :    196.27s CPU    208.36s WALL (  973086 calls)

     PWSCF        :      3h42m CPU      3h44m WALL


   This run was terminated on:   7:20:34   1Jul2026            

=------------------------------------------------------------------------------=
   JOB DONE.
=------------------------------------------------------------------------------=
