
     Program PWSCF v.6.7MaX starts on  1Jul2026 at  7:20:34 

     This program is part of the open-source Quantum ESPRESSO suite
     for quantum simulation of materials; please cite
         "P. Giannozzi et al., J. Phys.:Condens. Matter 21 395502 (2009);
         "P. Giannozzi et al., J. Phys.:Condens. Matter 29 465901 (2017);
          URL http://www.quantum-espresso.org", 
     in publications or presentations arising from this work. More details at
     http://www.quantum-espresso.org/quote

     Parallel version (MPI), running on     8 processors

     MPI processes distributed on     1 nodes
     K-points division:     npool     =       2
     R & G space division:  proc/nbgrp/npool/nimage =       4
     Waiting for input...
     Reading input from standard input
Warning: card &CELL ignored
Warning: card / ignored

     Current dimensions of program PWSCF are:
     Max number of different atomic species (ntypx) = 10
     Max number of k-points (npk) =  40000
     Max angular momentum in pseudopotentials (lmaxx) =  3
     file Ba.pbe-spn-kjpaw_psl.1.0.0.UPF: wavefunction(s)  5S 6S renormalized
     file O.pbe-n-kjpaw_psl.0.1.UPF: wavefunction(s)  2P renormalized

     Subspace diagonalization in iterative solution of the eigenvalue problem:
     one sub-group per band group will be used
     scalapack distributed-memory algorithm (size of sub-group:  2*  2 procs)

     Message from routine setup:
     using ibrav=0 with symmetry is DISCOURAGED, use correct ibrav instead

     Parallelization info
     --------------------
     sticks:   dense  smooth     PW     G-vecs:    dense   smooth      PW
     Min        1117     559    149                79854    28233    3949
     Max        1118     560    151                79855    28238    3950
     Sum        4471    2239    599               319417   112945   15797



     bravais-lattice index     =            0
     lattice parameter (alat)  =      10.3350  a.u.
     unit-cell volume          =    2364.8313 (a.u.)^3
     number of atoms/cell      =           24
     number of atomic types    =            3
     number of electrons       =       160.00
     number of Kohn-Sham states=           80
     kinetic-energy cutoff     =      50.0000  Ry
     charge density cutoff     =     400.0000  Ry
     scf convergence threshold =      1.0E-10
     mixing beta               =       0.3000
     number of iterations used =            8  plain     mixing
     Exchange-correlation= SLA  PW   PBX  PBC
                           (   1   4   3   4   0   0   0)

     celldm(1)=  10.334972  celldm(2)=   0.000000  celldm(3)=   0.000000
     celldm(4)=   0.000000  celldm(5)=   0.000000  celldm(6)=   0.000000

     crystal axes: (cart. coord. in units of alat)
               a(1) = (   1.000000   0.000000   0.000000 )  
               a(2) = (  -0.000000   1.314356   0.000000 )  
               a(3) = (   0.000000   0.000000   1.629893 )  

     reciprocal axes: (cart. coord. in units 2 pi/alat)
               b(1) = (  1.000000  0.000000 -0.000000 )  
               b(2) = (  0.000000  0.760829  0.000000 )  
               b(3) = (  0.000000 -0.000000  0.613537 )  


     PseudoPot. # 1 for Ba read from file:
     /data/pseudopotentials/Ba.pbe-spn-kjpaw_psl.1.0.0.UPF
     MD5 check sum: 7cfe25f1fe7574a4710541d5a11d6531
     Pseudo is Projector augmented-wave + core cor, Zval = 10.0
     Generated using &quot;atomic&quot; code by A. Dal Corso  v.6.2.2
     Shape of augmentation charge: PSQ
     Using radial grid of 1251 points,  7 beta functions with: 
                l(1) =   0
                l(2) =   0
                l(3) =   0
                l(4) =   1
                l(5) =   1
                l(6) =   2
                l(7) =   2
     Q(r) pseudized with 0 coefficients 


     PseudoPot. # 2 for S  read from file:
     /data/pseudopotentials/s_pbe_v1.4.uspp.F.UPF
     MD5 check sum: 88d86576ff6df21479756cfb9bdac1df
     Pseudo is Ultrasoft + core correction, Zval =  6.0
     Generated by new atomic code, or converted to UPF format
     Using radial grid of  907 points,  6 beta functions with: 
                l(1) =   0
                l(2) =   0
                l(3) =   1
                l(4) =   1
                l(5) =   2
                l(6) =   2
     Q(r) pseudized with  8 coefficients,  rinner =    1.300   1.300   1.300
                                                       1.300   1.300

     PseudoPot. # 3 for O  read from file:
     /data/pseudopotentials/O.pbe-n-kjpaw_psl.0.1.UPF
     MD5 check sum: 833c495a5d0f9b75bf046115549bffff
     Pseudo is Projector augmented-wave + core cor, Zval =  6.0
     Generated using &quot;atomic&quot; code by A. Dal Corso  v.6.3
     Shape of augmentation charge: BESSEL
     Using radial grid of 1095 points,  4 beta functions with: 
                l(1) =   0
                l(2) =   0
                l(3) =   1
                l(4) =   1
     Q(r) pseudized with 0 coefficients 


     atomic species   valence    mass     pseudopotential
        Ba            10.00   137.32700     Ba( 1.00)
        S              6.00    32.06000     S ( 1.00)
        O              6.00    15.99900     O ( 1.00)

      8 Sym. Ops., with inversion, found ( 6 have fractional translation)



   Cartesian axes

     site n.     atom                  positions (alat units)
         1           Ba  tau(   1) = (   0.2500000   1.1083155   1.1166492  )
         2           Ba  tau(   2) = (   0.7500000   0.2060404   0.5132443  )
         3           Ba  tau(   3) = (   0.7500000   0.4511376   1.3281910  )
         4           Ba  tau(   4) = (   0.2500000   0.8632183   0.3017025  )
         5           S   tau(   5) = (   0.2500000   0.4065105   0.9158743  )
         6           S   tau(   6) = (   0.7500000   0.9078454   0.7140192  )
         7           S   tau(   7) = (   0.7500000   1.0636884   1.5289660  )
         8           S   tau(   8) = (   0.2500000   0.2506675   0.1009275  )
         9           O   tau(   9) = (   0.5302340   1.0655232   0.6843195  )
        10           O   tau(  10) = (   0.0302340   0.2488327   0.9455740  )
        11           O   tau(  11) = (   0.4697660   0.4083452   0.1306272  )
        12           O   tau(  12) = (   0.9697660   0.9060106   1.4992663  )
        13           O   tau(  13) = (   0.4697660   0.2488327   0.9455740  )
        14           O   tau(  14) = (   0.9697660   1.0655232   0.6843195  )
        15           O   tau(  15) = (   0.5302340   0.9060106   1.4992663  )
        16           O   tau(  16) = (   0.0302340   0.4083452   0.1306272  )
        17           O   tau(  17) = (   0.2500000   0.5142924   0.6709027  )
        18           O   tau(  18) = (   0.7500000   0.8000634   0.9589908  )
        19           O   tau(  19) = (   0.7500000   1.1714704   0.1440441  )
        20           O   tau(  20) = (   0.2500000   0.1428855   1.4858494  )
        21           O   tau(  21) = (   0.2500000   0.0644397   0.2958965  )
        22           O   tau(  22) = (   0.7500000   1.2499162   1.3339970  )
        23           O   tau(  23) = (   0.7500000   0.7216176   0.5190502  )
        24           O   tau(  24) = (   0.2500000   0.5927383   1.1108433  )

     number of k points=     8
                       cart. coord. in units 2pi/alat
        k(    1) = (   0.0000000   0.0000000   0.0000000), wk =   0.0740741
        k(    2) = (   0.0000000   0.0000000   0.2045123), wk =   0.1481481
        k(    3) = (   0.0000000   0.2536096   0.0000000), wk =   0.1481481
        k(    4) = (   0.0000000   0.2536096   0.2045123), wk =   0.2962963
        k(    5) = (   0.3333333   0.0000000   0.0000000), wk =   0.1481481
        k(    6) = (   0.3333333   0.0000000   0.2045123), wk =   0.2962963
        k(    7) = (   0.3333333   0.2536096   0.0000000), wk =   0.2962963
        k(    8) = (   0.3333333   0.2536096   0.2045123), wk =   0.5925926

     Dense  grid:   319417 G-vectors     FFT dimensions: (  72,  90, 108)

     Smooth grid:   112945 G-vectors     FFT dimensions: (  48,  64,  80)

     Estimated max dynamical RAM per process >     246.12 MB

     Estimated total dynamical RAM >       1.92 GB

     Check: negative core charge=   -0.000002

     Initial potential from superposition of free atoms

     starting charge  159.93181, renormalised to  160.00000
     Starting wfcs are  100 randomized atomic wfcs
     Checking if some PAW data can be deallocated... 

     total cpu time spent up to now is       14.9 secs

     Self-consistent Calculation

     iteration #  1     ecut=    50.00 Ry     beta= 0.30
     Davidson diagonalization with overlap
     ethr =  1.00E-02,  avg # of iterations =  2.0

     total cpu time spent up to now is       39.6 secs

     total energy              =   -2508.32298413 Ry
     estimated scf accuracy    <       5.76682580 Ry

     iteration #  2     ecut=    50.00 Ry     beta= 0.30
     Davidson diagonalization with overlap
     ethr =  3.60E-03,  avg # of iterations =  2.0

     total cpu time spent up to now is       63.4 secs

     total energy              =   -2509.25365039 Ry
     estimated scf accuracy    <       0.35038952 Ry

     iteration #  3     ecut=    50.00 Ry     beta= 0.30
     Davidson diagonalization with overlap
     ethr =  2.19E-04,  avg # of iterations =  3.0

     total cpu time spent up to now is       92.5 secs

     total energy              =   -2509.36042471 Ry
     estimated scf accuracy    <       0.12246426 Ry

     iteration #  4     ecut=    50.00 Ry     beta= 0.30
     Davidson diagonalization with overlap
     ethr =  7.65E-05,  avg # of iterations =  4.0

     total cpu time spent up to now is      122.9 secs

     total energy              =   -2509.37993449 Ry
     estimated scf accuracy    <       0.13308864 Ry

     iteration #  5     ecut=    50.00 Ry     beta= 0.30
     Davidson diagonalization with overlap
     ethr =  7.65E-05,  avg # of iterations =  2.0

     total cpu time spent up to now is      143.0 secs

     total energy              =   -2509.37889283 Ry
     estimated scf accuracy    <       0.02172065 Ry

     iteration #  6     ecut=    50.00 Ry     beta= 0.30
     Davidson diagonalization with overlap
     ethr =  1.36E-05,  avg # of iterations =  3.0

     total cpu time spent up to now is      172.0 secs

     total energy              =   -2509.38995983 Ry
     estimated scf accuracy    <       0.00679848 Ry

     iteration #  7     ecut=    50.00 Ry     beta= 0.30
     Davidson diagonalization with overlap
     ethr =  4.25E-06,  avg # of iterations =  2.0

     total cpu time spent up to now is      194.0 secs

     total energy              =   -2509.39017523 Ry
     estimated scf accuracy    <       0.00089641 Ry

     iteration #  8     ecut=    50.00 Ry     beta= 0.30
     Davidson diagonalization with overlap
     ethr =  5.60E-07,  avg # of iterations =  5.0

     total cpu time spent up to now is      231.0 secs

     total energy              =   -2509.38971789 Ry
     estimated scf accuracy    <       0.00463002 Ry

     iteration #  9     ecut=    50.00 Ry     beta= 0.30
     Davidson diagonalization with overlap
     ethr =  5.60E-07,  avg # of iterations =  3.0

     total cpu time spent up to now is      260.9 secs

     total energy              =   -2509.39075533 Ry
     estimated scf accuracy    <       0.00002436 Ry

     iteration # 10     ecut=    50.00 Ry     beta= 0.30
     Davidson diagonalization with overlap
     ethr =  1.52E-08,  avg # of iterations =  6.0

     total cpu time spent up to now is      302.1 secs

     total energy              =   -2509.39069926 Ry
     estimated scf accuracy    <       0.00013082 Ry

     iteration # 11     ecut=    50.00 Ry     beta= 0.30
     Davidson diagonalization with overlap
     ethr =  1.52E-08,  avg # of iterations =  4.0

     total cpu time spent up to now is      340.6 secs

     total energy              =   -2509.39070713 Ry
     estimated scf accuracy    <       0.00012973 Ry

     iteration # 12     ecut=    50.00 Ry     beta= 0.30
     Davidson diagonalization with overlap
     ethr =  1.52E-08,  avg # of iterations =  4.0

     total cpu time spent up to now is      374.6 secs

     total energy              =   -2509.39075888 Ry
     estimated scf accuracy    <       0.00004187 Ry

     iteration # 13     ecut=    50.00 Ry     beta= 0.30
     Davidson diagonalization with overlap
     ethr =  1.52E-08,  avg # of iterations =  1.0

     total cpu time spent up to now is      391.5 secs

     total energy              =   -2509.39075000 Ry
     estimated scf accuracy    <       0.00002310 Ry

     iteration # 14     ecut=    50.00 Ry     beta= 0.30
     Davidson diagonalization with overlap
     ethr =  1.44E-08,  avg # of iterations =  2.0

     total cpu time spent up to now is      413.7 secs

     total energy              =   -2509.39075447 Ry
     estimated scf accuracy    <       0.00000057 Ry

     iteration # 15     ecut=    50.00 Ry     beta= 0.30
     Davidson diagonalization with overlap
     ethr =  3.56E-10,  avg # of iterations =  2.0

     total cpu time spent up to now is      438.6 secs

     total energy              =   -2509.39075449 Ry
     estimated scf accuracy    <       0.00000221 Ry

     iteration # 16     ecut=    50.00 Ry     beta= 0.30
     Davidson diagonalization with overlap
     ethr =  3.56E-10,  avg # of iterations =  1.0

     total cpu time spent up to now is      455.6 secs

     total energy              =   -2509.39075440 Ry
     estimated scf accuracy    <       0.00000189 Ry

     iteration # 17     ecut=    50.00 Ry     beta= 0.30
     Davidson diagonalization with overlap
     ethr =  3.56E-10,  avg # of iterations =  1.0

     total cpu time spent up to now is      472.4 secs

     total energy              =   -2509.39075406 Ry
     estimated scf accuracy    <       0.00000128 Ry

     iteration # 18     ecut=    50.00 Ry     beta= 0.30
     Davidson diagonalization with overlap
     ethr =  3.56E-10,  avg # of iterations =  3.0

     total cpu time spent up to now is      497.3 secs

     total energy              =   -2509.39075424 Ry
     estimated scf accuracy    <       0.00000038 Ry

     iteration # 19     ecut=    50.00 Ry     beta= 0.30
     Davidson diagonalization with overlap
     ethr =  2.40E-10,  avg # of iterations =  1.0

     total cpu time spent up to now is      514.2 secs

     total energy              =   -2509.39075430 Ry
     estimated scf accuracy    <       0.00000058 Ry

     iteration # 20     ecut=    50.00 Ry     beta= 0.30
     Davidson diagonalization with overlap
     ethr =  2.40E-10,  avg # of iterations =  2.0

     total cpu time spent up to now is      536.1 secs

     total energy              =   -2509.39075437 Ry
     estimated scf accuracy    <       0.00000080 Ry

     iteration # 21     ecut=    50.00 Ry     beta= 0.30
     Davidson diagonalization with overlap
     ethr =  2.40E-10,  avg # of iterations =  1.0

     total cpu time spent up to now is      552.9 secs

     total energy              =   -2509.39075414 Ry
     estimated scf accuracy    <       0.00000087 Ry

     iteration # 22     ecut=    50.00 Ry     beta= 0.30
     Davidson diagonalization with overlap
     ethr =  2.40E-10,  avg # of iterations =  3.0

     total cpu time spent up to now is      577.4 secs

     total energy              =   -2509.39075422 Ry
     estimated scf accuracy    <       0.00000030 Ry

     iteration # 23     ecut=    50.00 Ry     beta= 0.30
     Davidson diagonalization with overlap
     ethr =  1.86E-10,  avg # of iterations =  2.0

     total cpu time spent up to now is      597.6 secs

     total energy              =   -2509.39075426 Ry
     estimated scf accuracy    <       0.00000015 Ry

     iteration # 24     ecut=    50.00 Ry     beta= 0.30
     Davidson diagonalization with overlap
     ethr =  9.25E-11,  avg # of iterations =  1.0

     total cpu time spent up to now is      614.2 secs

     total energy              =   -2509.39075427 Ry
     estimated scf accuracy    <       0.00000010 Ry

     iteration # 25     ecut=    50.00 Ry     beta= 0.30
     Davidson diagonalization with overlap
     ethr =  6.44E-11,  avg # of iterations =  1.0

     total cpu time spent up to now is      630.5 secs

     total energy              =   -2509.39075425 Ry
     estimated scf accuracy    <       0.00000013 Ry

     iteration # 26     ecut=    50.00 Ry     beta= 0.30
     Davidson diagonalization with overlap
     ethr =  6.44E-11,  avg # of iterations =  1.0

     total cpu time spent up to now is      647.0 secs

     total energy              =   -2509.39075422 Ry
     estimated scf accuracy    <       0.00000008 Ry

     iteration # 27     ecut=    50.00 Ry     beta= 0.30
     Davidson diagonalization with overlap
     ethr =  4.94E-11,  avg # of iterations =  2.0

     total cpu time spent up to now is      668.6 secs

     total energy              =   -2509.39075423 Ry
     estimated scf accuracy    <       0.00000001 Ry

     iteration # 28     ecut=    50.00 Ry     beta= 0.30
     Davidson diagonalization with overlap
     ethr =  8.55E-12,  avg # of iterations =  2.0

     total cpu time spent up to now is      689.1 secs

     total energy              =   -2509.39075422 Ry
     estimated scf accuracy    <       0.00000001 Ry

     iteration # 29     ecut=    50.00 Ry     beta= 0.30
     Davidson diagonalization with overlap
     ethr =  7.04E-12,  avg # of iterations =  3.0

     total cpu time spent up to now is      716.6 secs

     total energy              =   -2509.39075422 Ry
     estimated scf accuracy    <          6.7E-09 Ry

     iteration # 30     ecut=    50.00 Ry     beta= 0.30
     Davidson diagonalization with overlap
     ethr =  4.19E-12,  avg # of iterations =  3.0

     total cpu time spent up to now is      741.7 secs

     total energy              =   -2509.39075422 Ry
     estimated scf accuracy    <          1.7E-10 Ry

     iteration # 31     ecut=    50.00 Ry     beta= 0.30
     Davidson diagonalization with overlap
     ethr =  1.09E-13,  avg # of iterations =  4.0

     total cpu time spent up to now is      769.5 secs

     total energy              =   -2509.39075422 Ry
     estimated scf accuracy    <          3.8E-10 Ry

     iteration # 32     ecut=    50.00 Ry     beta= 0.30
     Davidson diagonalization with overlap
     ethr =  1.09E-13,  avg # of iterations =  3.0

     total cpu time spent up to now is      797.9 secs

     End of self-consistent calculation

          k = 0.0000 0.0000 0.0000 ( 14081 PWs)   bands (ev):

   -19.1261 -19.0448 -19.0281 -19.0185 -17.2220 -17.1624 -17.1536 -17.1375
   -13.0013 -12.9770 -12.9660 -12.9130 -12.9044 -12.8790 -12.8773 -12.8399
   -12.8376 -12.8308 -12.8266 -12.8175  -4.7870  -4.5540  -4.4527  -4.4082
    -4.3795  -4.3568  -4.3288  -4.2646  -4.2318  -4.1996  -4.1948  -4.1830
    -2.8161  -2.3227  -2.2257  -1.7722  -0.4143  -0.3220  -0.2114  -0.1936
    -0.0476   0.0096   0.0566   0.1572   0.1910   0.2528   0.2812   0.3748
     2.5094   2.5902   2.6144   2.6753   2.7690   2.7930   2.8997   2.9565
     2.9759   3.0409   3.0709   3.2811   3.3303   3.3544   3.5910   3.6358
     3.7819   3.8968   3.9812   4.0637   4.6957   5.0652   5.1801   5.1843
     5.2465   5.3176   5.3864   5.4173   5.4189   5.4655   5.4784   5.5208

          k = 0.0000 0.0000 0.2045 ( 14156 PWs)   bands (ev):

   -19.1079 -19.0684 -19.0242 -19.0182 -17.2059 -17.1753 -17.1509 -17.1421
   -12.9892 -12.9716 -12.9568 -12.9085 -12.9050 -12.8937 -12.8881 -12.8650
   -12.8372 -12.8325 -12.8129 -12.8110  -4.7011  -4.4985  -4.4844  -4.4098
    -4.3808  -4.3653  -4.3385  -4.2929  -4.2772  -4.2440  -4.2200  -4.2090
    -2.5234  -2.3148  -2.2625  -2.0133  -0.2927  -0.2817  -0.2295  -0.1694
    -0.1189   0.0200   0.0418   0.1033   0.2212   0.2651   0.2671   0.3012
     2.5995   2.6106   2.6273   2.7395   2.8295   2.8632   2.8808   2.9229
     3.0284   3.0398   3.1700   3.2640   3.2971   3.3105   3.4604   3.6299
     3.7245   3.8854   3.8961   4.0149   4.8352   5.1061   5.1118   5.1996
     5.2087   5.2917   5.3139   5.3945   5.4626   5.4823   5.5063   5.5102

          k = 0.0000 0.2536 0.0000 ( 14140 PWs)   bands (ev):

   -19.1006 -19.0527 -19.0352 -19.0206 -17.2212 -17.1894 -17.1532 -17.1381
   -13.0048 -13.0015 -12.9064 -12.9011 -12.8823 -12.8794 -12.8738 -12.8430
   -12.8377 -12.8365 -12.8277 -12.8271  -4.7562  -4.6061  -4.5224  -4.4699
    -4.3894  -4.3644  -4.3489  -4.3308  -4.3133  -4.2357  -4.2260  -4.2027
    -2.4272  -2.1855  -2.1676  -1.8864  -0.3316  -0.2774  -0.1727  -0.0916
    -0.0870  -0.0333   0.0608   0.1160   0.1370   0.2094   0.2447   0.3586
     2.5541   2.5693   2.5976   2.6542   2.7780   2.8734   2.9706   2.9902
     3.0557   3.0719   3.1395   3.2490   3.2540   3.2942   3.5475   3.6227
     3.6568   3.8257   3.8615   4.0068   4.7348   5.0056   5.1526   5.2365
     5.2372   5.3579   5.4021   5.4104   5.4172   5.4405   5.4929   5.5800

          k = 0.0000 0.2536 0.2045 ( 14128 PWs)   bands (ev):

   -19.0859 -19.0566 -19.0405 -19.0270 -17.2126 -17.1968 -17.1495 -17.1421
   -12.9903 -12.9854 -12.9143 -12.8992 -12.8956 -12.8858 -12.8707 -12.8562
   -12.8426 -12.8390 -12.8244 -12.8189  -4.6950  -4.5732  -4.5435  -4.5152
    -4.3917  -4.3518  -4.3496  -4.3129  -4.3002  -4.2678  -4.2407  -4.2397
    -2.2964  -2.1988  -2.1791  -2.0215  -0.2377  -0.1962  -0.1528  -0.1128
    -0.1104  -0.0259   0.0719   0.1251   0.1349   0.1537   0.2125   0.2802
     2.6101   2.6169   2.6581   2.7412   2.7913   2.8687   2.9055   2.9857
     3.0324   3.0754   3.1087   3.2364   3.2774   3.3011   3.4540   3.5355
     3.6959   3.8186   3.8999   3.9731   4.8195   4.9622   5.1836   5.2532
     5.2742   5.2930   5.3736   5.3748   5.4052   5.4157   5.5366   5.5712

          k = 0.3333 0.0000 0.0000 ( 14113 PWs)   bands (ev):

   -19.0853 -19.0354 -19.0352 -19.0220 -17.1924 -17.1921 -17.1865 -17.1499
   -13.0127 -12.9705 -12.9383 -12.9369 -12.9101 -12.8953 -12.8782 -12.8629
   -12.8557 -12.8356 -12.8327 -12.8179  -4.5370  -4.4727  -4.4067  -4.3580
    -4.3542  -4.3459  -4.3237  -4.3104  -4.3063  -4.2784  -4.2561  -4.2259
    -2.3788  -2.3335  -2.0835  -2.0384  -0.4466  -0.2318  -0.1616  -0.1144
    -0.0681  -0.0578   0.0844   0.0860   0.1530   0.1940   0.2295   0.2917
     2.5353   2.5440   2.5933   2.8451   2.8889   2.9054   2.9642   2.9977
     3.0617   3.0938   3.1709   3.2506   3.2964   3.3680   3.4504   3.5587
     3.5873   3.7270   3.7894   3.9010   4.8982   4.9446   5.0517   5.0706
     5.2080   5.2192   5.2338   5.2623   5.3628   5.4454   5.4751   5.4858

          k = 0.3333 0.0000 0.2045 ( 14107 PWs)   bands (ev):

   -19.0737 -19.0492 -19.0313 -19.0240 -17.1917 -17.1908 -17.1787 -17.1597
   -12.9898 -12.9482 -12.9471 -12.9338 -12.9238 -12.8985 -12.8981 -12.8714
   -12.8509 -12.8446 -12.8253 -12.8154  -4.5536  -4.5266  -4.4032  -4.3783
    -4.3560  -4.3487  -4.3077  -4.3045  -4.2671  -4.2608  -4.2503  -4.2141
    -2.3000  -2.2747  -2.1474  -2.1273  -0.4046  -0.2995  -0.1519  -0.1209
    -0.0658   0.0269   0.0949   0.1290   0.1362   0.1580   0.1994   0.2315
     2.5623   2.5668   2.7586   2.8703   2.9078   2.9426   2.9682   3.0256
     3.0304   3.1303   3.1661   3.2015   3.2362   3.3284   3.3441   3.3871
     3.6986   3.7755   3.7869   3.8381   4.9507   5.0120   5.0470   5.0683
     5.1818   5.1891   5.2250   5.2568   5.3406   5.3909   5.5032   5.5104

          k = 0.3333 0.2536 0.0000 ( 14101 PWs)   bands (ev):

   -19.0698 -19.0444 -19.0302 -19.0238 -17.2100 -17.2013 -17.1763 -17.1608
   -13.0072 -12.9894 -12.9493 -12.9379 -12.9033 -12.8774 -12.8772 -12.8678
   -12.8495 -12.8264 -12.8109 -12.8001  -4.6649  -4.6110  -4.4584  -4.3918
    -4.3484  -4.3480  -4.3213  -4.3211  -4.3043  -4.2742  -4.2429  -4.2198
    -2.2713  -2.1458  -2.0607  -1.9029  -0.3315  -0.2348  -0.2169  -0.1527
    -0.1024  -0.0539  -0.0196   0.0491   0.1740   0.2245   0.2633   0.3064
     2.5235   2.5339   2.6317   2.8166   2.9207   2.9335   2.9621   3.0236
     3.0871   3.1043   3.1612   3.1638   3.2521   3.2936   3.5204   3.5658
     3.5808   3.6345   3.7677   3.7906   4.9077   4.9204   5.0333   5.0647
     5.2194   5.2284   5.2408   5.3569   5.3767   5.4340   5.4971   5.5183

          k = 0.3333 0.2536 0.2045 ( 14105 PWs)   bands (ev):

   -19.0606 -19.0432 -19.0366 -19.0281 -17.2051 -17.2007 -17.1755 -17.1673
   -12.9853 -12.9696 -12.9413 -12.9319 -12.9110 -12.9033 -12.8855 -12.8833
   -12.8419 -12.8321 -12.8085 -12.8027  -4.6294  -4.5778  -4.5257  -4.4825
    -4.3490  -4.3300  -4.2986  -4.2926  -4.2737  -4.2679  -4.2519  -4.2304
    -2.1834  -2.1262  -2.0839  -1.9978  -0.3190  -0.2519  -0.1756  -0.1698
    -0.0607  -0.0190   0.0328   0.0942   0.1407   0.1823   0.2034   0.2395
     2.5506   2.5824   2.6359   2.7888   2.8741   2.8964   3.0225   3.0474
     3.0912   3.1015   3.1629   3.1830   3.2740   3.3209   3.4561   3.4629
     3.6396   3.7072   3.7410   3.7577   4.9310   4.9924   5.0244   5.0801
     5.1501   5.1869   5.2747   5.3285   5.3962   5.4423   5.4679   5.4967

     highest occupied level (ev):     5.5800

!    total energy              =   -2509.39075422 Ry
     estimated scf accuracy    <          2.2E-11 Ry

     The total energy is the sum of the following terms:
     one-electron contribution =    -256.58256145 Ry
     hartree contribution      =     225.15981922 Ry
     xc contribution           =    -236.72976185 Ry
     ewald contribution        =    -589.18393022 Ry
     one-center paw contrib.   =   -1652.05431993 Ry

     convergence has been achieved in  32 iterations

     Forces acting on atoms (cartesian axes, Ry/au):

     atom    1 type  1   force =     0.00000000   -0.00023013    0.00032553
     atom    2 type  1   force =     0.00000000    0.00023013   -0.00032553
     atom    3 type  1   force =     0.00000000   -0.00023013   -0.00032553
     atom    4 type  1   force =     0.00000000    0.00023013    0.00032553
     atom    5 type  2   force =     0.00000000    0.00269287   -0.00077334
     atom    6 type  2   force =     0.00000000   -0.00269287    0.00077334
     atom    7 type  2   force =     0.00000000    0.00269287    0.00077334
     atom    8 type  2   force =     0.00000000   -0.00269287   -0.00077334
     atom    9 type  3   force =    -0.03187422    0.02313484   -0.00412223
     atom   10 type  3   force =    -0.03187422   -0.02313484    0.00412223
     atom   11 type  3   force =     0.03187422    0.02313484    0.00412223
     atom   12 type  3   force =     0.03187422   -0.02313484   -0.00412223
     atom   13 type  3   force =     0.03187422   -0.02313484    0.00412223
     atom   14 type  3   force =     0.03187422    0.02313484   -0.00412223
     atom   15 type  3   force =    -0.03187422   -0.02313484   -0.00412223
     atom   16 type  3   force =    -0.03187422    0.02313484    0.00412223
     atom   17 type  3   force =     0.00000000    0.01573633   -0.03643437
     atom   18 type  3   force =     0.00000000   -0.01573633    0.03643437
     atom   19 type  3   force =     0.00000000    0.01573633    0.03643437
     atom   20 type  3   force =     0.00000000   -0.01573633   -0.03643437
     atom   21 type  3   force =     0.00000000   -0.02745533    0.02926053
     atom   22 type  3   force =     0.00000000    0.02745533   -0.02926053
     atom   23 type  3   force =     0.00000000   -0.02745533   -0.02926053
     atom   24 type  3   force =     0.00000000    0.02745533    0.02926053

     Total force =     0.159116     Total SCF correction =     0.000008


     Computing stress (Cartesian axis) and pressure

          total   stress  (Ry/bohr**3)                   (kbar)     P=       52.82
   0.00035763   0.00000000   0.00000000           52.61        0.00        0.00
   0.00000000   0.00035195   0.00000000            0.00       51.77        0.00
   0.00000000   0.00000000   0.00036761            0.00        0.00       54.08


     Writing output data file ./out/BaO4S.save/

     init_run     :     13.93s CPU     14.17s WALL (       1 calls)
     electrons    :    774.67s CPU    783.00s WALL (       1 calls)
     forces       :     10.18s CPU     10.27s WALL (       1 calls)
     stress       :     17.50s CPU     17.73s WALL (       1 calls)

     Called by init_run:
     wfcinit      :      7.01s CPU      7.06s WALL (       1 calls)
     potinit      :      2.70s CPU      2.76s WALL (       1 calls)
     hinit0       :      3.50s CPU      3.52s WALL (       1 calls)

     Called by electrons:
     c_bands      :    650.06s CPU    652.81s WALL (      32 calls)
     sum_band     :     72.78s CPU     75.86s WALL (      32 calls)
     v_of_rho     :      4.93s CPU      5.04s WALL (      33 calls)
     newd         :     19.22s CPU     21.68s WALL (      33 calls)
     PAW_pot      :     27.84s CPU     27.86s WALL (      33 calls)
     mix_rho      :      0.90s CPU      0.93s WALL (      32 calls)

     Called by c_bands:
     init_us_2    :      1.85s CPU      1.85s WALL (     268 calls)
     cegterg      :    636.18s CPU    638.93s WALL (     128 calls)

     Called by *egterg:
     cdiaghg      :     12.11s CPU     12.19s WALL (     444 calls)
     h_psi        :    278.80s CPU    281.37s WALL (     448 calls)
     s_psi        :    115.03s CPU    115.04s WALL (     448 calls)
     g_psi        :      0.61s CPU      0.61s WALL (     316 calls)

     Called by h_psi:
     h_psi:calbec :    112.23s CPU    112.31s WALL (     448 calls)
     vloc_psi     :     50.51s CPU     52.99s WALL (     448 calls)
     add_vuspsi   :    115.63s CPU    115.64s WALL (     448 calls)

     General routines
     calbec       :    158.18s CPU    158.27s WALL (     596 calls)
     fft          :      3.55s CPU      3.70s WALL (     452 calls)
     ffts         :      0.12s CPU      0.13s WALL (      65 calls)
     fftw         :     48.88s CPU     51.31s WALL (   68042 calls)
     interpolate  :      0.36s CPU      0.38s WALL (      33 calls)

     Parallel routines
     fft_scatt_xy :      8.57s CPU      9.05s WALL (   68559 calls)
     fft_scatt_yz :     11.21s CPU     12.07s WALL (   68559 calls)

     PWSCF        :  13m37.05s CPU  13m46.05s WALL


   This run was terminated on:   7:34:20   1Jul2026            

=------------------------------------------------------------------------------=
   JOB DONE.
=------------------------------------------------------------------------------=
